# vtk DataFile Version 2.0
Generated by vtk_extract.c
ASCII
DATASET STRUCTURED_POINTS
DIMENSIONS 128 25 25
ORIGIN 0 0 0
SPACING 1 1 1
POINT_DATA 80000
VECTORS director float
 9.995944e-01 -1.570340e-02 -2.375659e-02
 9.996334e-01 -1.705870e-02 -2.102654e-02
 9.996960e-01 -1.674933e-02 -1.809480e-02
 9.997682e-01 -1.531393e-02 -1.513251e-02
 9.998376e-01 -1.323234e-02 -1.223616e-02
 9.998968e-01 -1.083740e-02 -9.426366e-03
 9.999430e-01 -8.323123e-03 -6.683750e-03
 9.999753e-01 -5.783675e-03 -3.986922e-03
 9.999939e-01 -3.240199e-03 -1.316608e-03
 9.999989e-01 -6.737632e-04  1.334567e-03
 9.999903e-01  1.946897e-03  3.951661e-03
 9.999680e-01  4.646150e-03  6.508855e-03
 9.999321e-01  7.418164e-03  8.989448e-03
 9.998833e-01  1.019356e-02  1.138319e-02
 9.998243e-01  1.280937e-02  1.368534e-02
 9.997617e-01  1.498532e-02  1.587127e-02
 9.997067e-01  1.633768e-02  1.787499e-02
 9.996727e-01  1.646303e-02  1.958146e-02
 9.996685e-01  1.510604e-02  2.085056e-02
 9.996903e-01  1.236377e-02  2.159573e-02
 9.997232e-01  8.752844e-03  2.183857e-02
 9.997576e-01  4.927234e-03  2.145898e-02
 9.998071e-01  1.208653e-03  1.960343e-02
 9.998951e-01 -3.057604e-03  1.415703e-02
 9.999581e-01 -8.738399e-03  2.723684e-03
 9.998264e-01 -1.433803e-02 -1.189917e-02
 9.996579e-01 -1.624118e-02 -2.050378e-02
 9.996259e-01 -1.519781e-02 -2.273898e-02
 9.996748e-01 -1.308648e-02 -2.188914e-02
 9.997381e-01 -1.096902e-02 -2.008745e-02
 9.997911e-01 -9.204515e-03 -1.824803e-02
 9.998322e-01 -7.839531e-03 -1.655709e-02
 9.998650e-01 -6.784185e-03 -1.496602e-02
 9.998932e-01 -5.909760e-03 -1.336870e-02
 9.999189e-01 -5.095091e-03 -1.167083e-02
 9.999429e-01 -4.247420e-03 -9.809495e-03
 9.999644e-01 -3.313051e-03 -7.762845e-03
 9.999821e-01 -2.273774e-03 -5.536968e-03
 9.999943e-01 -1.142572e-03 -3.164187e-03
 9.999998e-01  4.804554e-05 -6.878013e-04
 9.999975e-01  1.256256e-03  1.840824e-03
 9.999876e-01  2.433828e-03  4.352115e-03
 9.999708e-01  3.542055e-03  6.774652e-03
 9.999486e-01  4.561210e-03  9.049639e-03
 9.999228e-01  5.496710e-03  1.114080e-02
 9.998945e-01  6.384819e-03  1.304961e-02
 9.998636e-01  7.290973e-03  1.482079e-02
 9.998287e-01  8.302685e-03  1.654241e-02
 9.997866e-01  9.518345e-03  1.833715e-02
 9.997321e-01  1.103415e-02  2.034843e-02
 9.996586e-01  1.291874e-02  2.271138e-02
 9.995601e-01  1.516660e-02  2.548789e-02
 9.994407e-01  1.756422e-02  2.845773e-02
 9.993458e-01  1.943426e-02  3.049922e-02
 9.994192e-01  1.905504e-02  2.825156e-02
 9.997944e-01  1.322121e-02  1.537095e-02
 9.999619e-01  1.608141e-03 -8.575992e-03
 9.997207e-01 -5.996545e-03 -2.285911e-02
 9.995915e-01 -9.227644e-03 -2.704889e-02
 9.995807e-01 -1.063056e-02 -2.693372e-02
 9.996108e-01 -1.150332e-02 -2.541308e-02
 9.996458e-01 -1.229604e-02 -2.360317e-02
 9.996779e-01 -1.299315e-02 -2.180051e-02
 9.997088e-01 -1.342885e-02 -2.004863e-02
 9.997419e-01 -1.346032e-02 -1.830155e-02
 9.997788e-01 -1.302896e-02 -1.650816e-02
 9.998192e-01 -1.215246e-02 -1.462687e-02
 9.998610e-01 -1.089017e-02 -1.262362e-02
 9.999017e-01 -9.317297e-03 -1.047523e-02
 9.999384e-01 -7.507948e-03 -8.171019e-03
 9.999683e-01 -5.531973e-03 -5.726879e-03
 9.999890e-01 -3.442113e-03 -3.170947e-03
 9.999990e-01 -1.269654e-03 -5.368409e-04
 9.999973e-01  9.679288e-04  2.135875e-03
 9.999832e-01  3.256611e-03  4.792615e-03
 9.999573e-01  5.573590e-03  7.369031e-03
 9.999208e-01  7.881032e-03  9.814894e-03
 9.998756e-01  1.011334e-02  1.210787e-02
 9.998244e-01  1.216635e-02  1.425214e-02
 9.997711e-01  1.389220e-02  1.627263e-02
 9.997201e-01  1.511225e-02  1.820077e-02
 9.996760e-01  1.565646e-02  2.006899e-02
 9.996409e-01  1.543081e-02  2.190617e-02
 9.996132e-01  1.448264e-02  2.374294e-02
 9.995876e-01  1.301695e-02  2.559727e-02
 9.995623e-01  1.125624e-02  2.736027e-02
 9.995589e-01  9.159441e-03  2.825038e-02
 9.996540e-01  5.829871e-03  2.564955e-02
 9.999027e-01 -9.943472e-04  1.391104e-02
 9.998966e-01 -1.167746e-02 -8.388190e-03
 9.995589e-01 -1.813192e-02 -2.352087e-02
 9.994340e-01 -1.898496e-02 -2.777053e-02
 9.994861e-01 -1.732653e-02 -2.696809e-02
 9.995860e-01 -1.501950e-02 -2.454128e-02
 9.996767e-01 -1.288521e-02 -2.191770e-02
 9.997469e-01 -1.118473e-02 -1.952113e-02
 9.997989e-01 -9.915251e-03 -1.743218e-02
 9.998389e-01 -8.958593e-03 -1.555411e-02
 9.998719e-01 -8.173457e-03 -1.376091e-02
 9.999011e-01 -7.430024e-03 -1.194251e-02
 9.999278e-01 -6.626840e-03 -1.002482e-02
 9.999520e-01 -5.690997e-03 -7.974343e-03
 9.999728e-01 -4.570433e-03 -5.786754e-03
 9.999887e-01 -3.227695e-03 -3.479997e-03
 9.999981e-01 -1.629534e-03 -1.087222e-03
 9.999991e-01  2.569790e-04  1.352389e-03
 9.999897e-01  2.465746e-03  3.810163e-03
 9.999676e-01  5.021292e-03  6.291950e-03
 9.999297e-01  7.909751e-03  8.838852e-03
 9.998727e-01  1.103391e-02  1.152811e-02
 9.997957e-01  1.414496e-02  1.443914e-02
 9.997045e-01  1.677104e-02  1.759933e-02
 9.996162e-01  1.818709e-02  2.089702e-02
 9.995572e-01  1.752259e-02  2.405114e-02
 9.995440e-01  1.412311e-02  2.669045e-02
 9.995584e-01  8.084825e-03  2.859452e-02
 9.995519e-01  5.461188e-04  2.992977e-02
 9.994937e-01 -6.534751e-03  3.113920e-02
 9.994202e-01 -1.087895e-02  3.226376e-02
 9.994704e-01 -1.041572e-02  3.082793e-02
 9.998515e-01 -4.144909e-03  1.672444e-02
 9.997955e-01  5.083240e-03 -1.957489e-02
 9.994528e-01  1.066575e-02 -3.130896e-02
 9.994355e-01  1.035684e-02 -3.195920e-02
 9.995125e-01  5.957205e-03 -3.064754e-02
 9.995705e-01 -4.493091e-04 -2.930335e-02
 9.995866e-01 -6.981966e-03 -2.788938e-02
 9.995840e-01 -1.231344e-02 -2.608067e-02
 9.987086e-01 -4.444584e-02 -2.461067e-02
 9.976113e-01 -6.554538e-02 -2.180778e-02
 9.971033e-01 -7.367642e-02 -1.889072e-02
 9.972355e-01 -7.256026e-02 -1.601443e-02
 9.977513e-01 -6.570555e-02 -1.323336e-02
 9.983897e-01 -5.574318e-02 -1.052379e-02
 9.989856e-01 -4.434260e-02 -7.838973e-03
 9.994624e-01 -3.237785e-02 -5.148096e-03
 9.997941e-01 -2.014419e-02 -2.439418e-03
 9.999714e-01 -7.563730e-03  2.846729e-04
 9.999798e-01  5.609293e-03  2.993332e-03
 9.997923e-01  1.958417e-02  5.649091e-03
 9.993781e-01  3.428779e-02  8.227334e-03
 9.987363e-01  4.910169e-02  1.071906e-02
 9.979505e-01  6.262946e-02  1.312933e-02
 9.972424e-01  7.258672e-02  1.545099e-02
 9.969526e-01  7.599081e-02  1.763452e-02
 9.973645e-01  6.986807e-02  1.955683e-02
 9.983936e-01  5.260737e-02  2.104171e-02
 9.994372e-01  2.536738e-02  2.194844e-02
 9.997252e-01 -7.325096e-03  2.226856e-02
 9.989880e-01 -3.930419e-02  2.186674e-02
 9.976875e-01 -6.499358e-02  1.988766e-02
 9.965495e-01 -8.180211e-02  1.405630e-02
 9.961643e-01 -8.747847e-02  2.056461e-03
 9.967078e-01 -8.008278e-02 -1.266166e-02
 9.976835e-01 -6.471197e-02 -2.097476e-02
 9.985597e-01 -4.847425e-02 -2.299656e-02
 9.991641e-01 -3.440770e-02 -2.207243e-02
 9.995167e-01 -2.351780e-02 -2.032786e-02
 9.997046e-01 -1.561896e-02 -1.862150e-02
 9.998015e-01 -1.022130e-02 -1.710056e-02
 9.998548e-01 -6.682221e-03 -1.567554e-02
 9.998894e-01 -4.376408e-03 -1.421061e-02
 9.999169e-01 -2.747064e-03 -1.259882e-02
 9.999410e-01 -1.365214e-03 -1.077685e-02
 9.999619e-01  4.998969e-05 -8.725203e-03
 9.999778e-01  1.626689e-03 -6.456066e-03
 9.999863e-01  3.357380e-03 -4.009048e-03
 9.999857e-01  5.144749e-03 -1.434177e-03
 9.999758e-01  6.848101e-03  1.209506e-03
 9.999578e-01  8.337323e-03  3.845834e-03
 9.999339e-01  9.553143e-03  6.397456e-03
 9.999057e-01  1.053894e-02  8.802582e-03
 9.998737e-01  1.145217e-02  1.102288e-02
 9.998359e-01  1.255858e-02  1.305747e-02
 9.997875e-01  1.419476e-02  1.494622e-02
 9.997197e-01  1.670910e-02  1.676997e-02
 9.996183e-01  2.039208e-02  1.864119e-02
 9.994625e-01  2.542663e-02  2.069463e-02
 9.992277e-01  3.181242e-02  2.306288e-02
 9.988935e-01  3.931472e-02  2.580785e-02
 9.984715e-01  4.723774e-02  2.869124e-02
 9.980593e-01  5.427630e-02  3.052546e-02
 9.979310e-01  5.800082e-02  2.774130e-02
 9.983593e-01  5.555059e-02  1.388334e-02
 9.988515e-01  4.677358e-02 -1.039129e-02
 9.990848e-01  3.532126e-02 -2.412557e-02
 9.993553e-01  2.268083e-02 -2.782973e-02
 9.995791e-01  9.280427e-03 -2.748632e-02
 9.996514e-01 -4.981779e-03 -2.592714e-02
 9.995212e-01 -1.928966e-02 -2.419380e-02
 9.992259e-01 -3.225613e-02 -2.252181e-02
 9.988812e-01 -4.241769e-02 -2.090436e-02
 9.986192e-01 -4.886683e-02 -1.927879e-02
 9.985233e-01 -5.139851e-02 -1.759209e-02
 9.986048e-01 -5.038432e-02 -1.580476e-02
 9.988223e-01 -4.649318e-02 -1.387262e-02
 9.991109e-01 -4.048474e-02 -1.176357e-02
 9.994091e-01 -3.304467e-02 -9.459354e-03
 9.996702e-01 -2.471691e-02 -6.973971e-03
 9.998651e-01 -1.584209e-02 -4.339641e-03
 9.999772e-01 -6.560575e-03 -1.595612e-03
 9.999944e-01  3.127347e-03  1.208082e-03
 9.999037e-01  1.328529e-02  4.006313e-03
 9.996911e-01  2.392547e-02  6.723649e-03
 9.993484e-01  3.487419e-02  9.305038e-03
 9.988897e-01  4.562616e-02  1.172844e-02
 9.983745e-01  5.524727e-02  1.400480e-02
 9.979225e-01  6.236450e-02  1.616796e-02
 9.976974e-01  6.531965e-02  1.825726e-02
 9.978371e-01  6.252091e-02  2.030621e-02
 9.983425e-01  5.304683e-02  2.232326e-02
 9.990141e-01  3.714380e-02  2.431392e-02
 9.995187e-01  1.649852e-02  2.627070e-02
 9.995863e-01 -6.383584e-03  2.804394e-02
 9.991711e-01 -2.879228e-02  2.877739e-02
 9.984654e-01 -4.909390e-02  2.562323e-02
 9.978038e-01 -6.499148e-02  1.279203e-02
 9.973175e-01 -7.246397e-02 -1.032925e-02
 9.972187e-01 -7.034150e-02 -2.463437e-02
 9.976476e-01 -6.249481e-02 -2.817095e-02
 9.982461e-01 -5.264554e-02 -2.707628e-02
 9.987513e-01 -4.345944e-02 -2.464031e-02
 9.991071e-01 -3.597149e-02 -2.216089e-02
 9.993354e-01 -3.048803e-02 -1.997960e-02
 9.994751e-01 -2.686519e-02 -1.810379e-02
 9.995613e-01 -2.465456e-02 -1.641168e-02
 9.996185e-01 -2.334270e-02 -1.476339e-02
 9.996637e-01 -2.241556e-02 -1.304319e-02
 9.997082e-01 -2.141459e-02 -1.117519e-02
 9.997599e-01 -1.991886e-02 -9.127259e-03
 9.998224e-01 -1.753449e-02 -6.901733e-03
 9.998936e-01 -1.386648e-02 -4.527168e-03
 9.999618e-01 -8.491845e-03 -2.048960e-03
 9.999994e-01 -9.798497e-04  4.822077e-04
 9.999546e-01  9.034605e-03  3.027495e-03
 9.997488e-01  2.170501e-02  5.587022e-03
 9.992917e-01  3.672656e-02  8.202787e-03
 9.985347e-01  5.299253e-02  1.096364e-02
 9.975759e-01  6.816784e-02  1.398049e-02
 9.967775e-01  7.832261e-02  1.732550e-02
 9.967363e-01  7.796513e-02  2.093355e-02
 9.978354e-01  6.101572e-02  2.452543e-02
 9.993456e-01  2.332290e-02  2.764786e-02
 9.989751e-01 -3.393423e-02  2.995439e-02
 9.942361e-01 -1.024633e-01  3.155850e-02
 9.850771e-01 -1.689335e-01  3.293397e-02
 9.758170e-01 -2.159233e-01  3.403311e-02
 9.763895e-01 -2.136287e-01  3.203668e-02
 9.937102e-01 -1.107941e-01  1.626728e-02
 9.919822e-01  1.247580e-01 -2.016946e-02
 9.762712e-01  2.140410e-01 -3.287870e-02
 9.774582e-01  2.084294e-01 -3.365563e-02
 9.862019e-01  1.623943e-01 -3.215328e-02
 9.942487e-01  1.026282e-01 -3.061083e-02
 9.986622e-01  4.279127e-02 -2.903114e-02
 9.996014e-01 -8.012357e-03 -2.707080e-02
 9.974371e-01 -6.675509e-02 -2.574818e-02
 9.941256e-01 -1.057475e-01 -2.306081e-02
 9.923869e-01 -1.214763e-01 -2.029043e-02
 9.925337e-01 -1.206949e-01 -1.759546e-02
 9.938547e-01 -1.096721e-01 -1.499261e-02
 9.955789e-01 -9.310624e-02 -1.240855e-02
 9.972136e-01 -7.395639e-02 -9.771599e-03
 9.985294e-01 -5.375372e-02 -7.047402e-03
 9.994469e-01 -3.298342e-02 -4.231049e-03
 9.999334e-01 -1.146346e-02 -1.342702e-03
 9.999351e-01  1.128207e-02  1.569339e-03
 9.993552e-01  3.562766e-02  4.450007e-03
 9.980867e-01  6.140100e-02  7.265084e-03
 9.961221e-01  8.741133e-02  1.000283e-02
 9.937338e-01  1.110513e-01  1.267664e-02
 9.916387e-01  1.281357e-01  1.529732e-02
 9.909211e-01  1.332579e-01  1.782679e-02
 9.924464e-01  1.210185e-01  2.011647e-02
 9.958489e-01  8.834510e-02  2.191078e-02
 9.990424e-01  3.723720e-02  2.297076e-02
 9.994466e-01 -2.380007e-02  2.323866e-02
 9.963143e-01 -8.275051e-02  2.258874e-02
 9.914562e-01 -1.288742e-01  2.015312e-02
 9.875351e-01 -1.568199e-01  1.349220e-02
 9.868160e-01 -1.618452e-01  6.231347e-04
 9.896838e-01 -1.425809e-01 -1.402391e-02
 9.935734e-01 -1.110473e-01 -2.191783e-02
 9.965107e-01 -8.001694e-02 -2.374330e-02
 9.982757e-01 -5.408718e-02 -2.281005e-02
 9.991827e-01 -3.443747e-02 -2.116362e-02
 9.995985e-01 -2.045780e-02 -1.960352e-02
 9.997717e-01 -1.111062e-02 -1.824926e-02
 9.998423e-01 -5.182287e-03 -1.698327e-02
 9.998763e-01 -1.537383e-03 -1.565132e-02
 9.998998e-01  7.880133e-04 -1.413286e-02
 9.999205e-01  2.538028e-03 -1.235399e-02
 9.999382e-01  4.203106e-03 -1.029187e-02
 9.999502e-01  6.025300e-03 -7.959530e-03
 9.999532e-01  8.027880e-03 -5.401276e-03
 9.999456e-01  1.008557e-02 -2.674644e-03
 9.999279e-01  1.200345e-02  1.536370e-04
 9.999029e-01  1.361142e-02  2.998296e-03
 9.998729e-01  1.485917e-02  5.774664e-03
 9.998389e-01  1.585552e-02  8.418167e-03
 9.997980e-01  1.689428e-02  1.088785e-02
 9.997430e-01  1.844442e-02  1.317785e-02
 9.996603e-01  2.108452e-02  1.532013e-02
 9.995263e-01  2.539786e-02  1.738337e-02
 9.993029e-01  3.185395e-02  1.946663e-02
 9.989350e-01  4.072297e-02  2.169159e-02
 9.983553e-01  5.198176e-02  2.417746e-02
 9.975037e-01  6.526213e-02  2.696780e-02
 9.963880e-01  7.953115e-02  2.976237e-02
 9.951858e-01  9.290403e-02  3.120996e-02
 9.944306e-01  1.017729e-01  2.738778e-02
 9.946592e-01  1.025312e-01  1.185308e-02
 9.954303e-01  9.465002e-02 -1.264266e-02
 9.965248e-01  7.926611e-02 -2.559817e-02
 9.978924e-01  5.813620e-02 -2.882629e-02
 9.990390e-01  3.346031e-02 -2.831096e-02
 9.996218e-01  6.196683e-03 -2.679266e-02
 9.994526e-01 -2.141509e-02 -2.521568e-02
 9.986372e-01 -4.647003e-02 -2.375310e-02
 9.975595e-01 -6.614751e-02 -2.234853e-02
 9.966705e-01 -7.880451e-02 -2.092140e-02
 9.962627e-01 -8.416615e-02 -1.940753e-02
 9.963888e-01 -8.302979e-02 -1.775916e-02
 9.969258e-01 -7.671583e-02 -1.592366e-02
 9.976779e-01 -6.668424e-02 -1.385589e-02
 9.984621e-01 -5.422627e-02 -1.153054e-02
 9.991466e-01 -4.032075e-02 -8.961773e-03
 9.996546e-01 -2.554206e-02 -6.186954e-03
 9.999439e-01 -1.008330e-02 -3.254459e-03
 9.999812e-01  6.127258e-03 -2.249980e-04
 9.997252e-01  2.326924e-02  2.823507e-03
 9.991253e-01  4.141119e-02  5.802982e-03
 9.981458e-01  6.025079e-02  8.652103e-03
 9.968219e-01  7.885033e-02  1.134767e-02
 9.953355e-01  9.546658e-02  1.390454e-02
 9.940653e-01  1.075476e-01  1.636307e-02
 9.935288e-01  1.120195e-01  1.876550e-02
 9.941497e-01  1.059225e-01  2.113594e-02
 9.958906e-01  8.747585e-02  2.344784e-02
 9.980419e-01  5.704495e-02  2.565566e-02
 9.994589e-01  1.774643e-02  2.769326e-02
 9.992442e-01 -2.550232e-02  2.933613e-02
 9.973090e-01 -6.707469e-02  2.959417e-02
 9.943655e-01 -1.029516e-01  2.526307e-02
 9.918651e-01 -1.268470e-01  1.065402e-02
 9.911835e-01 -1.318413e-01 -1.315523e-02
 9.922386e-01 -1.215377e-01 -2.629121e-02
 9.940756e-01 -1.047331e-01 -2.906407e-02
 9.958602e-01 -8.657535e-02 -2.769651e-02
 9.971848e-01 -7.059262e-02 -2.528218e-02
 9.980580e-01 -5.789664e-02 -2.298293e-02
 9.985906e-01 -4.872349e-02 -2.104269e-02
 9.988985e-01 -4.271730e-02 -1.941744e-02
 9.990719e-01 -3.915533e-02 -1.795185e-02
 9.991710e-01 -3.722287e-02 -1.648612e-02
 9.992375e-01 -3.609382e-02 -1.489018e-02
 9.993016e-01 -3.500273e-02 -1.308217e-02
 9.993877e-01 -3.320495e-02 -1.102994e-02
 9.995126e-01 -2.996826e-02 -8.740252e-03
 9.996796e-01 -2.452890e-02 -6.253437e-03
 9.998644e-01 -1.606330e-02 -3.624805e-03
 9.999926e-01 -3.743523e-03 -9.193704e-04
 9.999124e-01  1.311270e-02  1.813422e-03
 9.993851e-01  3.476582e-02  4.563728e-03
 9.981339e-01  6.061680e-02  7.368431e-03
 9.960135e-01  8.860349e-02  1.032145e-02
 9.933320e-01  1.144886e-01  1.356336e-02
 9.911935e-01  1.312982e-01  1.721403e-02
 9.913676e-01  1.293789e-01  2.124701e-02
 9.948724e-01  9.791050e-02  2.534464e-02
 9.991610e-01  2.901956e-02  2.890026e-02
 9.966431e-01 -7.561378e-02  3.138455e-02
 9.790856e-01 -2.007685e-01  3.291412e-02
 9.454995e-01 -3.238270e-01  3.415728e-02
 9.049429e-01 -4.240760e-01  3.518328e-02
 8.819185e-01 -4.702242e-01  3.329975e-02
 9.383062e-01 -3.454267e-01  1.617915e-02
 9.300329e-01  3.669455e-01 -1.974425e-02
 8.888015e-01  4.570501e-01 -3.372136e-02
 9.138605e-01  4.045864e-01 -3.418871e-02
 9.500013e-01  3.105355e-01 -3.263699e-02
 9.790621e-01  2.011591e-01 -3.118546e-02
 9.952515e-01  9.265489e-02 -2.982625e-02
 9.996060e-01 -3.048053e-05 -2.806837e-02
 9.962088e-01 -8.269662e-02 -2.700589e-02
 9.903314e-01 -1.365345e-01 -2.453622e-02
 9.871035e-01 -1.585697e-01 -2.196249e-02
 9.872275e-01 -1.581211e-01 -1.948197e-02
 9.894634e-01 -1.437732e-01 -1.706944e-02
 9.924320e-01 -1.219219e-01 -1.461844e-02
 9.952490e-01 -9.661559e-02 -1.203175e-02
 9.975099e-01 -6.991615e-02 -9.264297e-03
 9.990805e-01 -4.240524e-02 -6.318385e-03
 9.999005e-01 -1.372868e-02 -3.228381e-03
 9.998577e-01  1.687200e-02 -6.969915e-05
 9.987460e-01  4.997003e-02  3.080532e-03
 9.963366e-01  8.529491e-02  6.175564e-03
 9.926005e-01  1.210761e-01  9.204844e-03
 9.880719e-01  1.535094e-01  1.220063e-02
 9.841598e-01  1.766304e-01  1.520173e-02
 9.829662e-01  1.828842e-01  1.818682e-02
 9.861092e-01  1.647704e-01  2.096053e-02
 9.927676e-01  1.177980e-01  2.315634e-02
 9.987115e-01  4.449968e-02  2.439606e-02
 9.987777e-01 -4.289984e-02  2.455122e-02
 9.916949e-01 -1.264478e-01  2.349788e-02
 9.814861e-01 -1.904470e-01  2.036936e-02
 9.738113e-01 -2.270100e-01  1.257306e-02
 9.732743e-01 -2.296420e-01 -1.322463e-03
 9.799233e-01 -1.987635e-01 -1.560415e-02
 9.881349e-01 -1.518651e-01 -2.294449e-02
 9.940537e-01 -1.060679e-01 -2.463454e-02
 9.974135e-01 -6.782626e-02 -2.378700e-02
 9.989908e-01 -3.899023e-02 -2.229791e-02
 9.996052e-01 -1.878009e-02 -2.089710e-02
 9.997900e-01 -5.685006e-03 -1.969060e-02
 9.998254e-01  2.114372e-03 -1.856795e-02
 9.998292e-01  6.326279e-03 -1.736699e-02
 9.998376e-01  8.392795e-03 -1.594982e-02
 9.998543e-01  9.422651e-03 -1.423178e-02
 9.998741e-01  1.016680e-02 -1.217976e-02
 9.998911e-01  1.102620e-02 -9.805104e-03
 9.999012e-01  1.209884e-02 -7.152944e-03
 9.999027e-01  1.327465e-02 -4.282656e-03
 9.998964e-01  1.433815e-02 -1.263842e-03
 9.998842e-01  1.510825e-02  1.813894e-03
 9.998670e-01  1.556815e-02  4.859306e-03
 9.998434e-01  1.588551e-02  7.802938e-03
 9.998079e-01  1.648766e-02  1.059478e-02
 9.997497e-01  1.805205e-02  1.321821e-02
 9.996474e-01  2.141928e-02  1.569264e-02
 9.994599e-01  2.744626e-02  1.807498e-02
 9.991120e-01  3.683816e-02  2.045113e-02
 9.984846e-01  5.002822e-02  2.292893e-02
 9.974211e-01  6.704714e-02  2.560819e-02
 9.957617e-01  8.744645e-02  2.849116e-02
 9.934631e-01  1.098112e-01  3.118624e-02
 9.907918e-01  1.315307e-01  3.211255e-02
 9.886978e-01  1.474859e-01  2.691611e-02
 9.882107e-01  1.528136e-01  9.359765e-03
 9.891256e-01  1.463112e-01 -1.495112e-02
 9.914546e-01  1.276405e-01 -2.693886e-02
 9.946447e-01  9.897424e-02 -2.976509e-02
 9.975284e-01  6.391704e-02 -2.918531e-02
 9.993133e-01  2.451472e-02 -2.778465e-02
 9.995284e-01 -1.565652e-02 -2.641666e-02
 9.983186e-01 -5.220086e-02 -2.519868e-02
 9.964250e-01 -8.098902e-02 -2.404076e-02
 9.947535e-01 -9.972104e-02 -2.282874e-02
 9.939097e-01 -1.080804e-01 -2.149783e-02
 9.940272e-01 -1.072852e-01 -1.999400e-02
 9.948893e-01 -9.930715e-02 -1.825607e-02
 9.961382e-01 -8.628629e-02 -1.622981e-02
 9.974446e-01 -7.008235e-02 -1.388324e-02
 9.985812e-01 -5.205313e-02 -1.122825e-02
 9.994227e-01 -3.294540e-02 -8.302992e-03
 9.999029e-01 -1.294741e-02 -5.161833e-03
 9.999651e-01  8.136202e-03 -1.879137e-03
 9.995291e-01  3.065118e-02  1.449979e-03
 9.984879e-01  5.476824e-02  4.722689e-03
 9.967568e-01  8.008635e-02  7.872112e-03
 9.943853e-01  1.052593e-01  1.087799e-02
 9.917083e-01  1.277702e-01  1.376481e-02
 9.894444e-01  1.439607e-01  1.658425e-02
 9.885775e-01  1.494613e-01  1.938501e-02
 9.898895e-01  1.400979e-01  2.216763e-02
 9.932512e-01  1.132878e-01  2.485958e-02
 9.972099e-01  6.946090e-02  2.734309e-02
 9.994806e-01  1.304674e-02  2.946761e-02
 9.983382e-01 -4.864189e-02  3.090114e-02
 9.937856e-01 -1.070632e-01  3.045888e-02
 9.874778e-01 -1.558380e-01  2.453774e-02
 9.827102e-01 -1.849818e-01  7.902875e-03
 9.824498e-01 -1.858562e-01 -1.580928e-02
 9.855872e-01 -1.668880e-01 -2.768099e-02
 9.895701e-01 -1.409140e-01 -2.990511e-02
 9.930575e-01 -1.141361e-01 -2.845551e-02
 9.955091e-01 -9.097566e-02 -2.617530e-02
 9.970519e-01 -7.285222e-02 -2.408496e-02
 9.979455e-01 -6.002848e-02 -2.238932e-02
 9.984299e-01 -5.192523e-02 -2.101274e-02
 9.986743e-01 -4.752596e-02 -1.977336e-02
 9.987841e-01 -4.569826e-02 -1.849247e-02
 9.988290e-01 -4.528410e-02 -1.702687e-02
 9.988619e-01 -4.517950e-02 -1.528824e-02
 9.989310e-01 -4.428941e-02 -1.324192e-02
 9.990785e-01 -4.151339e-02 -1.089548e-02
 9.993283e-01 -3.569680e-02 -8.290567e-03
 9.996570e-01 -2.560865e-02 -5.489620e-03
 9.999465e-01 -1.001849e-02 -2.569222e-03
 9.999270e-01  1.207409e-02  4.029173e-04
 9.991518e-01  4.103858e-02  3.399311e-03
 9.970875e-01  7.599382e-02  6.442942e-03
 9.934394e-01  1.139533e-01  9.634032e-03
 9.887620e-01  1.489195e-01  1.314417e-02
 9.850714e-01  1.712903e-01  1.714462e-02
 9.855390e-01  1.680610e-01  2.163990e-02
 9.918602e-01  1.245974e-01  2.624711e-02
 9.991060e-01  2.962964e-02  3.015488e-02
 9.928181e-01 -1.151051e-01  3.260525e-02
 9.572314e-01 -2.873574e-01  3.367244e-02
 8.887619e-01 -4.570974e-01  3.412131e-02
 7.912841e-01 -6.105214e-01  3.366045e-02
 6.504940e-01 -7.589843e-01  2.829297e-02
 3.655566e-01 -9.307369e-01  9.855133e-03
 4.776208e-01  8.784771e-01 -1.250303e-02
 7.010798e-01  7.124977e-01 -2.888101e-02
 8.182633e-01  5.739436e-01 -3.215568e-02
 9.003866e-01  4.339297e-01 -3.176326e-02
 9.580788e-01  2.848205e-01 -3.102215e-02
 9.901319e-01  1.368300e-01 -3.027270e-02
 9.995360e-01  9.300147e-03 -2.900438e-02
 9.951794e-01 -9.391139e-02 -2.826006e-02
 9.868954e-01 -1.592413e-01 -2.607063e-02
 9.822070e-01 -1.862942e-01 -2.374573e-02
 9.822495e-01 -1.863438e-01 -2.148991e-02
 9.853255e-01 -1.695947e-01 -1.926926e-02
 9.894713e-01 -1.437352e-01 -1.693453e-02
 9.934114e-01 -1.136986e-01 -1.436376e-02
 9.965654e-01 -8.200559e-02 -1.150775e-02
 9.987486e-01 -4.930460e-02 -8.382232e-03
 9.998740e-01 -1.505009e-02 -5.056499e-03
 9.997604e-01  2.182749e-02 -1.637066e-03
 9.980682e-01  6.210260e-02  1.777181e-03
 9.944191e-01  1.053767e-01  5.137383e-03
 9.887631e-01  1.492520e-01  8.446164e-03
 9.819562e-01  1.887424e-01  1.176252e-02
 9.762125e-01  2.162851e-01  1.516227e-02
 9.747276e-01  2.226187e-01  1.862587e-02
 9.798374e-01  1.985920e-01  2.190738e-02
 9.900645e-01  1.384613e-01  2.451085e-02
 9.986494e-01  4.503495e-02  2.590803e-02
 9.974782e-01 -6.607913e-02  2.590034e-02
 9.849501e-01 -1.711119e-01  2.437451e-02
 9.680916e-01 -2.497596e-01  2.046498e-02
 9.563979e-01 -2.918443e-01  1.139932e-02
 9.569153e-01 -2.903448e-01 -3.607419e-03
 9.685043e-01 -2.483965e-01 -1.728267e-02
 9.820289e-01 -1.872029e-01 -2.396424e-02
 9.915955e-01 -1.268301e-01 -2.554285e-02
 9.968091e-01 -7.586129e-02 -2.483251e-02
 9.990266e-01 -3.730281e-02 -2.354478e-02
 9.996955e-01 -1.054044e-02 -2.231235e-02
 9.997544e-01  6.284428e-03 -2.125283e-02
 9.996735e-01  1.556044e-02 -2.026609e-02
 9.996237e-01  1.959944e-02 -1.919005e-02
 9.996321e-01  2.039803e-02 -1.787731e-02
 9.996777e-01  1.951965e-02 -1.623128e-02
 9.997360e-01  1.805463e-02 -1.420948e-02
 9.997919e-01  1.663193e-02 -1.181312e-02
 9.998391e-01  1.547350e-02 -9.079073e-03
 9.998763e-01  1.451143e-02 -6.063086e-03
 9.999045e-01  1.352537e-02 -2.836059e-03
 9.999239e-01  1.232738e-02  4.996149e-04
 9.999328e-01  1.093932e-02  3.836118e-03
 9.999290e-01  9.577579e-03  7.093739e-03
 9.999089e-01  8.823292e-03  1.021575e-02
 9.998670e-01  9.603173e-03  1.317943e-02
 9.997864e-01  1.308395e-02  1.599801e-02
 9.996151e-01  2.047568e-02  1.871813e-02
 9.992322e-01  3.281155e-02  2.141178e-02
 9.984179e-01  5.076990e-02  2.416708e-02
 9.968559e-01  7.447347e-02  2.705735e-02
 9.941914e-01  1.033495e-01  3.004054e-02
 9.902384e-01  1.355119e-01  3.262662e-02
 9.853072e-01  1.675739e-01  3.299559e-02
 9.808729e-01  1.928631e-01  2.630928e-02
 9.788139e-01  2.046427e-01  6.689314e-03
 9.795741e-01  2.003668e-01 -1.696251e-02
 9.834246e-01  1.791569e-01 -2.790890e-02
 9.891142e-01  1.439709e-01 -3.042050e-02
 9.945947e-01  9.943973e-02 -2.988415e-02
 9.983934e-01  4.885996e-02 -2.869292e-02
 9.996148e-01 -2.933661e-03 -2.759863e-02
 9.983855e-01 -5.014819e-02 -2.667459e-02
 9.958286e-01 -8.752790e-02 -2.577503e-02
 9.933779e-01 -1.121871e-01 -2.478695e-02
 9.920288e-01 -1.237737e-01 -2.364273e-02
 9.920461e-01 -1.238870e-01 -2.228304e-02
 9.931407e-01 -1.150905e-01 -2.063300e-02
 9.947982e-01 -1.001477e-01 -1.862897e-02
 9.965463e-01 -8.143665e-02 -1.623398e-02
 9.980683e-01 -6.064977e-02 -1.346118e-02
 9.991983e-01 -3.867103e-02 -1.035722e-02
 9.998530e-01 -1.565466e-02 -6.992822e-03
 9.999557e-01  8.749861e-03 -3.460266e-03
 9.993843e-01  3.508553e-02  1.306940e-04
 9.979659e-01  6.364454e-02  3.672776e-03
 9.955531e-01  9.393356e-02  7.102117e-03
 9.922019e-01  1.242056e-01  1.040636e-02
 9.884080e-01  1.512087e-01  1.362102e-02
 9.852518e-01  1.702830e-01  1.681182e-02
 9.841921e-01  1.759688e-01  2.002361e-02
 9.863356e-01  1.631025e-01  2.322916e-02
 9.913682e-01  1.284415e-01  2.630373e-02
 9.969471e-01  7.247330e-02  2.905446e-02
 9.995113e-01  8.180791e-04  3.124925e-02
 9.965109e-01 -7.690233e-02  3.243595e-02
 9.883080e-01 -1.492471e-01  3.118651e-02
 9.779705e-01 -2.074274e-01  2.340183e-02
 9.711257e-01 -2.385253e-01  4.527946e-03
 9.721023e-01 -2.338560e-01 -1.812531e-02
 9.781108e-01 -2.061048e-01 -2.863689e-02
 9.848037e-01 -1.709713e-01 -3.050538e-02
 9.903550e-01 -1.354478e-01 -2.917088e-02
 9.941253e-01 -1.047737e-01 -2.715464e-02
 9.964008e-01 -8.089523e-02 -2.532717e-02
 9.976473e-01 -6.425895e-02 -2.388663e-02
 9.982714e-01 -5.419172e-02 -2.274616e-02
 9.985428e-01 -4.940418e-02 -2.171358e-02
 9.986149e-01 -4.841353e-02 -2.059923e-02
 9.985797e-01 -4.967935e-02 -1.925006e-02
 9.985085e-01 -5.169278e-02 -1.756839e-02
 9.984768e-01 -5.294849e-02 -1.551118e-02
 9.985642e-01 -5.194573e-02 -1.308062e-02
 9.988357e-01 -4.712416e-02 -1.032133e-02
 9.992943e-01 -3.684347e-02 -7.307632e-03
 9.998018e-01 -1.947397e-02 -4.140188e-03
 9.999798e-01  6.297897e-03 -9.111280e-04
 9.991592e-01  4.093272e-02  2.333535e-03
 9.965145e-01  8.323050e-02  5.610763e-03
 9.915684e-01  1.292697e-01  9.029043e-03
 9.851135e-01  1.714288e-01  1.279279e-02
 9.800643e-01  1.979416e-01  1.712050e-02
 9.808775e-01  1.933745e-01  2.203638e-02
 9.897263e-01  1.403872e-01  2.708016e-02
 9.992005e-01  2.495269e-02  3.123638e-02
 9.879594e-01 -1.510372e-01  3.352643e-02
 9.331866e-01 -3.577762e-01  3.404305e-02
 8.310033e-01 -5.552333e-01  3.390451e-02
 6.854455e-01 -7.273471e-01  3.362628e-02
 4.787638e-01 -8.773581e-01  3.206282e-02
 1.571378e-01 -9.871576e-01  2.876884e-02
 2.883438e-01  9.571125e-01 -2.816739e-02
 5.618129e-01  8.266990e-01 -3.057944e-02
 7.329149e-01  6.796102e-01 -3.107407e-02
 8.529012e-01  5.211741e-01 -3.061070e-02
 9.370029e-01  3.479893e-01 -3.048102e-02
 9.846956e-01  1.715970e-01 -3.047990e-02
 9.994008e-01  1.754625e-02 -2.983678e-02
 9.943172e-01 -1.023042e-01 -2.944755e-02
 9.840752e-01 -1.756021e-01 -2.756544e-02
 9.781537e-01 -2.063151e-01 -2.548549e-02
 9.780867e-01 -2.068737e-01 -2.344444e-02
 9.818458e-01 -1.884722e-01 -2.137657e-02
 9.869870e-01 -1.596614e-01 -1.910234e-02
 9.918860e-01 -1.260573e-01 -1.648628e-02
 9.957997e-01 -9.055964e-02 -1.348898e-02
 9.984957e-01 -5.387953e-02 -1.016425e-02
 9.998614e-01 -1.527751e-02 -6.613726e-03
 9.996418e-01  2.659753e-02 -2.968474e-03
 9.973560e-01  7.266707e-02  6.665812e-04
 9.924825e-01  1.223131e-01  4.251030e-03
 9.849862e-01  1.724568e-01  7.805243e-03
 9.761050e-01  2.169992e-01  1.141738e-02
 9.688738e-01  2.470890e-01  1.518775e-02
 9.674806e-01  2.522232e-01  1.909815e-02
 9.747565e-01  2.220986e-01  2.284447e-02
 9.883567e-01  1.499512e-01  2.579997e-02
 9.988773e-01  3.871965e-02  2.729275e-02
 9.953025e-01 -9.294981e-02  2.707886e-02
 9.761074e-01 -2.158362e-01  2.508040e-02
 9.519081e-01 -3.057009e-01  2.044156e-02
 9.365169e-01 -3.504742e-01  1.019650e-02
 9.390332e-01 -3.437769e-01 -5.847195e-03
 9.562846e-01 -2.918278e-01 -1.887494e-02
 9.756691e-01 -2.178264e-01 -2.492852e-02
 9.892988e-01 -1.434928e-01 -2.641313e-02
 9.964785e-01 -7.976290e-02 -2.585369e-02
 9.992070e-01 -3.117997e-02 -2.476326e-02
 9.997161e-01  2.417221e-03 -2.370467e-02
 9.994740e-01  2.306268e-02 -2.279884e-02
 9.991928e-01  3.364315e-02 -2.195193e-02
 9.990921e-01  3.706629e-02 -2.100372e-02
 9.991585e-01  3.591970e-02 -1.979998e-02
 9.993121e-01  3.229457e-02 -1.823065e-02
 9.994846e-01  2.769211e-02 -1.623720e-02
 9.996397e-01  2.301826e-02 -1.380837e-02
 9.997659e-01  1.864932e-02 -1.097477e-02
 9.998634e-01  1.457456e-02 -7.794997e-03
 9.999346e-01  1.057283e-02 -4.352658e-03
 9.999789e-01  6.447217e-03 -7.682704e-04
 9.999935e-01  2.231019e-03  2.834949e-03
 9.999780e-01 -1.805070e-03  6.375842e-03
 9.999400e-01 -4.895865e-03  9.797053e-03
 9.998976e-01 -5.813214e-03  1.307444e-02
 9.998640e-01 -2.991999e-03  1.621670e-02
 9.998008e-01  5.222912e-03  1.926101e-02
 9.995463e-01  2.029028e-02  2.226161e-02
 9.987462e-01  4.320812e-02  2.528200e-02
 9.968391e-01  7.421094e-02  2.836372e-02
 9.931496e-01  1.125444e-01  3.142771e-02
 9.872079e-01  1.557938e-01  3.389520e-02
 9.792694e-01  1.997326e-01  3.373790e-02
 9.713944e-01  2.360825e-01  2.565117e-02
 9.667566e-01  2.556635e-01  4.235137e-03
 9.670428e-01  2.539435e-01 -1.846443e-02
 9.726267e-01  2.306256e-01 -2.844561e-02
 9.813314e-01  1.898521e-01 -3.074006e-02
 9.901204e-01  1.369013e-01 -3.032682e-02
 9.966492e-01  7.632723e-02 -2.940327e-02
 9.994900e-01  1.412416e-02 -2.864129e-02
 9.986955e-01 -4.268309e-02 -2.802627e-02
 9.957542e-01 -8.787906e-02 -2.739985e-02
 9.926469e-01 -1.180771e-01 -2.664356e-02
 9.907970e-01 -1.328962e-01 -2.568748e-02
 9.906432e-01 -1.342680e-01 -2.445658e-02
 9.918588e-01 -1.252730e-01 -2.286515e-02
 9.937984e-01 -1.092258e-01 -2.084303e-02
 9.958655e-01 -8.896552e-02 -1.835851e-02