# vtk DataFile Version 2.0
Generated by vtk_extract.c
ASCII
DATASET STRUCTURED_POINTS
DIMENSIONS 128 25 25
ORIGIN 0 0 0
SPACING 1 1 1
POINT_DATA 80000
SCALARS scalar_op float 1
LOOKUP_TABLE default
 3.321934e-01
 3.324336e-01
 3.326284e-01
 3.327858e-01
 3.329113e-01
 3.330083e-01
 3.330810e-01
 3.331309e-01
 3.331620e-01
 3.331754e-01
 3.331721e-01
 3.331544e-01
 3.331215e-01
 3.330725e-01
 3.330081e-01
 3.329340e-01
 3.328621e-01
 3.328058e-01
 3.327723e-01
 3.327550e-01
 3.327522e-01
 3.327820e-01
 3.328806e-01
 3.330410e-01
 3.332918e-01
 3.334373e-01
 3.333211e-01
 3.331224e-01
 3.329481e-01
 3.328166e-01
 3.327307e-01
 3.326926e-01
 3.326963e-01
 3.327319e-01
 3.327894e-01
 3.328564e-01
 3.329243e-01
 3.329848e-01
 3.330302e-01
 3.330591e-01
 3.330685e-01
 3.330591e-01
 3.330346e-01
 3.329992e-01
 3.329569e-01
 3.329116e-01
 3.328659e-01
 3.328200e-01
 3.327727e-01
 3.327219e-01
 3.326666e-01
 3.326127e-01
 3.325832e-01
 3.326607e-01
 3.329811e-01
 3.334390e-01
 3.335051e-01
 3.329616e-01
 3.324514e-01
 3.322651e-01
 3.322480e-01
 3.323083e-01
 3.323977e-01
 3.324990e-01
 3.326053e-01
 3.327112e-01
 3.328137e-01
 3.329093e-01
 3.329948e-01
 3.330679e-01
 3.331245e-01
 3.331644e-01
 3.331852e-01
 3.331879e-01
 3.331721e-01
 3.331410e-01
 3.330975e-01
 3.330437e-01
 3.329817e-01
 3.329138e-01
 3.328420e-01
 3.327674e-01
 3.326862e-01
 3.325911e-01
 3.324789e-01
 3.323698e-01
 3.323470e-01
 3.325683e-01
 3.330580e-01
 3.336088e-01
 3.333740e-01
 3.328432e-01
 3.325714e-01
 3.324824e-01
 3.324798e-01
 3.325145e-01
 3.325697e-01
 3.326398e-01
 3.327212e-01
 3.328090e-01
 3.328985e-01
 3.329823e-01
 3.330575e-01
 3.331174e-01
 3.331612e-01
 3.331866e-01
 3.331951e-01
 3.331836e-01
 3.331462e-01
 3.330746e-01
 3.329619e-01
 3.328084e-01
 3.326219e-01
 3.324033e-01
 3.321115e-01
 3.316488e-01
 3.309296e-01
 3.300096e-01
 3.292595e-01
 3.295983e-01
 3.316460e-01
 3.312801e-01
 3.293223e-01
 3.291554e-01
 3.298811e-01
 3.307124e-01
 3.313876e-01
 3.318633e-01
 3.317247e-01
 3.321798e-01
 3.324899e-01
 3.327049e-01
 3.328604e-01
 3.329773e-01
 3.330637e-01
 3.331242e-01
 3.331616e-01
 3.331788e-01
 3.331749e-01
 3.331531e-01
 3.331107e-01
 3.330453e-01
 3.329558e-01
 3.328465e-01
 3.327267e-01
 3.326080e-01
 3.325030e-01
 3.324233e-01
 3.323865e-01
 3.324036e-01
 3.325012e-01
 3.326530e-01
 3.330101e-01
 3.333355e-01
 3.333289e-01
 3.331609e-01
 3.329439e-01
 3.327223e-01
 3.325336e-01
 3.324127e-01
 3.323686e-01
 3.323911e-01
 3.324631e-01
 3.325638e-01
 3.326734e-01
 3.327759e-01
 3.328559e-01
 3.329078e-01
 3.329276e-01
 3.329158e-01
 3.328803e-01
 3.328293e-01
 3.327716e-01
 3.327147e-01
 3.326640e-01
 3.326219e-01
 3.325890e-01
 3.325650e-01
 3.325478e-01
 3.325381e-01
 3.325357e-01
 3.326008e-01
 3.328395e-01
 3.331480e-01
 3.330692e-01
 3.325156e-01
 3.320491e-01
 3.318806e-01
 3.318460e-01
 3.318918e-01
 3.319881e-01
 3.321195e-01
 3.322706e-01
 3.324275e-01
 3.325822e-01
 3.327288e-01
 3.328630e-01
 3.329798e-01
 3.330718e-01
 3.331382e-01
 3.331757e-01
 3.331866e-01
 3.331696e-01
 3.331298e-01
 3.330707e-01
 3.329959e-01
 3.329080e-01
 3.328098e-01
 3.327035e-01
 3.325891e-01
 3.324641e-01
 3.323224e-01
 3.321629e-01
 3.319989e-01
 3.319196e-01
 3.320939e-01
 3.326314e-01
 3.333049e-01
 3.331809e-01
 3.327368e-01
 3.324580e-01
 3.322924e-01
 3.322054e-01
 3.321708e-01
 3.321869e-01
 3.322486e-01
 3.323503e-01
 3.324813e-01
 3.326281e-01
 3.327762e-01
 3.329139e-01
 3.330299e-01
 3.331216e-01
 3.331868e-01
 3.332286e-01
 3.332438e-01
 3.332249e-01
 3.331591e-01
 3.330316e-01
 3.328250e-01
 3.325142e-01
 3.320520e-01
 3.313616e-01
 3.303577e-01
 3.289999e-01
 3.273772e-01
 3.258151e-01
 3.248738e-01
 3.246077e-01
 3.244826e-01
 3.249587e-01
 3.259263e-01
 3.273889e-01
 3.288687e-01
 3.301091e-01
 3.310550e-01
 3.316327e-01
 3.322361e-01
 3.325956e-01
 3.328063e-01
 3.329413e-01
 3.330397e-01
 3.331137e-01
 3.331652e-01
 3.331975e-01
 3.332114e-01
 3.332077e-01
 3.331891e-01
 3.331533e-01
 3.330990e-01
 3.330261e-01
 3.329319e-01
 3.328040e-01
 3.326237e-01
 3.323993e-01
 3.321967e-01
 3.321203e-01
 3.322159e-01
 3.324531e-01
 3.327256e-01
 3.331185e-01
 3.333314e-01
 3.332402e-01
 3.330499e-01
 3.328242e-01
 3.325931e-01
 3.323853e-01
 3.322462e-01
 3.321896e-01
 3.322135e-01
 3.323004e-01
 3.324263e-01
 3.325673e-01
 3.327010e-01
 3.328082e-01
 3.328801e-01
 3.329108e-01
 3.329007e-01
 3.328597e-01
 3.327991e-01
 3.327287e-01
 3.326569e-01
 3.325907e-01
 3.325339e-01
 3.324895e-01
 3.324585e-01
 3.324387e-01
 3.324282e-01
 3.324297e-01
 3.325273e-01
 3.328315e-01
 3.331631e-01
 3.329513e-01
 3.323080e-01
 3.318421e-01
 3.316858e-01
 3.316565e-01
 3.317092e-01
 3.318235e-01
 3.319826e-01
 3.321604e-01
 3.323395e-01
 3.325127e-01
 3.326768e-01
 3.328286e-01
 3.329631e-01
 3.330716e-01
 3.331527e-01
 3.332031e-01
 3.332249e-01
 3.332177e-01
 3.331858e-01
 3.331335e-01
 3.330641e-01
 3.329801e-01
 3.328803e-01
 3.327578e-01
 3.326013e-01
 3.324038e-01
 3.321726e-01
 3.319374e-01
 3.317480e-01
 3.317330e-01
 3.320693e-01
 3.327766e-01
 3.332666e-01
 3.329848e-01
 3.325643e-01
 3.323260e-01
 3.321713e-01
 3.320670e-01
 3.320081e-01
 3.320056e-01
 3.320633e-01
 3.321761e-01
 3.323315e-01
 3.325121e-01
 3.326966e-01
 3.328702e-01
 3.330170e-01
 3.331346e-01
 3.332215e-01
 3.332834e-01
 3.333200e-01
 3.333275e-01
 3.332985e-01
 3.332188e-01
 3.330511e-01
 3.327052e-01
 3.320384e-01
 3.309571e-01
 3.295650e-01
 3.280675e-01
 3.264743e-01
 3.242232e-01
 3.177732e-01
 2.854709e-01
 2.930988e-01
 3.205407e-01
 3.251813e-01
 3.270058e-01
 3.283578e-01
 3.296023e-01
 3.307328e-01
 3.315322e-01
 3.322633e-01
 3.326576e-01
 3.328551e-01
 3.329772e-01
 3.330757e-01
 3.331631e-01
 3.332368e-01
 3.332918e-01
 3.333262e-01
 3.333330e-01
 3.333136e-01
 3.332699e-01
 3.332094e-01
 3.331401e-01
 3.330549e-01
 3.329117e-01
 3.326464e-01
 3.322506e-01
 3.318616e-01
 3.317127e-01
 3.318997e-01
 3.323297e-01
 3.327866e-01
 3.332158e-01
 3.332717e-01
 3.330537e-01
 3.328306e-01
 3.326118e-01
 3.324016e-01
 3.322113e-01
 3.320824e-01
 3.320355e-01
 3.320728e-01
 3.321808e-01
 3.323340e-01
 3.325055e-01
 3.326699e-01
 3.328055e-01
 3.329024e-01
 3.329545e-01
 3.329591e-01
 3.329260e-01
 3.328640e-01
 3.327815e-01
 3.326880e-01
 3.325931e-01
 3.325045e-01
 3.324269e-01
 3.323623e-01
 3.323067e-01
 3.322622e-01
 3.322482e-01
 3.323936e-01
 3.327991e-01
 3.331869e-01
 3.328370e-01
 3.320653e-01
 3.315670e-01
 3.314147e-01
 3.313985e-01
 3.314798e-01
 3.316354e-01
 3.318393e-01
 3.320561e-01
 3.322628e-01
 3.324559e-01
 3.326387e-01
 3.328119e-01
 3.329726e-01
 3.331120e-01
 3.332264e-01
 3.333077e-01
 3.333533e-01
 3.333582e-01
 3.333280e-01
 3.332698e-01
 3.331912e-01
 3.330978e-01
 3.329852e-01
 3.328347e-01
 3.326174e-01
 3.323172e-01
 3.319560e-01
 3.316091e-01
 3.313847e-01
 3.314694e-01
 3.320428e-01
 3.329647e-01
 3.332241e-01
 3.327229e-01
 3.322953e-01
 3.320979e-01
 3.319857e-01
 3.319089e-01
 3.318619e-01
 3.318676e-01
 3.319346e-01
 3.320645e-01
 3.322435e-01
 3.324533e-01
 3.326721e-01
 3.328821e-01
 3.330670e-01
 3.332204e-01
 3.333363e-01
 3.334159e-01
 3.334584e-01
 3.334667e-01
 3.334480e-01
 3.334011e-01
 3.332751e-01
 3.329083e-01
 3.320390e-01
 3.305455e-01
 3.287670e-01
 3.272468e-01
 3.258364e-01
 3.231636e-01
 3.146243e-01
 2.793768e-01
 2.884117e-01
 3.192286e-01
 3.252065e-01
 3.270722e-01
 3.280941e-01
 3.291775e-01
 3.304248e-01
 3.314452e-01
 3.322708e-01
 3.326704e-01
 3.328466e-01
 3.329538e-01
 3.330639e-01
 3.331834e-01
 3.332985e-01
 3.333931e-01
 3.334515e-01
 3.334628e-01
 3.334326e-01
 3.333721e-01
 3.333015e-01
 3.332384e-01
 3.331678e-01
 3.330126e-01
 3.326552e-01
 3.320695e-01
 3.314786e-01
 3.312653e-01
 3.315748e-01
 3.322250e-01
 3.328528e-01
 3.332565e-01
 3.331250e-01
 3.327845e-01
 3.325411e-01
 3.323459e-01
 3.321778e-01
 3.320229e-01
 3.319217e-01
 3.318954e-01
 3.319527e-01
 3.320817e-01
 3.322604e-01
 3.324620e-01
 3.326601e-01
 3.328323e-01
 3.329649e-01
 3.330472e-01
 3.330698e-01
 3.330407e-01
 3.329699e-01
 3.328671e-01
 3.327439e-01
 3.326126e-01
 3.324826e-01
 3.323604e-01
 3.322486e-01
 3.321453e-01
 3.320617e-01
 3.320378e-01
 3.322447e-01
 3.327563e-01
 3.332079e-01
 3.327692e-01
 3.318953e-01
 3.313456e-01
 3.311637e-01
 3.311393e-01
 3.312403e-01
 3.314343e-01
 3.316816e-01
 3.319316e-01
 3.321612e-01
 3.323724e-01
 3.325759e-01
 3.327785e-01
 3.329773e-01
 3.331585e-01
 3.333126e-01
 3.334242e-01
 3.334870e-01
 3.334963e-01
 3.334601e-01
 3.333900e-01
 3.332983e-01
 3.331935e-01
 3.330674e-01
 3.328878e-01
 3.326066e-01
 3.321975e-01
 3.317019e-01
 3.312480e-01
 3.310107e-01
 3.312288e-01
 3.320616e-01
 3.331557e-01
 3.331610e-01
 3.324585e-01
 3.320010e-01
 3.318235e-01
 3.317535e-01
 3.317176e-01
 3.317021e-01
 3.317296e-01
 3.318150e-01
 3.319636e-01
 3.321676e-01
 3.324090e-01
 3.326661e-01
 3.329194e-01
 3.331458e-01
 3.333325e-01
 3.334656e-01
 3.335445e-01
 3.335728e-01
 3.335654e-01
 3.335482e-01
 3.335343e-01
 3.334569e-01
 3.330825e-01
 3.320390e-01
 3.301752e-01
 3.280828e-01
 3.266759e-01
 3.257889e-01
 3.240458e-01
 3.201339e-01
 3.141448e-01
 3.165376e-01
 3.236026e-01
 3.264793e-01
 3.275424e-01
 3.280266e-01
 3.288713e-01
 3.301800e-01
 3.313931e-01
 3.322598e-01
 3.326531e-01
 3.328034e-01
 3.329048e-01
 3.330345e-01
 3.331926e-01
 3.333526e-01
 3.334791e-01
 3.335538e-01
 3.335646e-01
 3.335212e-01
 3.334446e-01
 3.333683e-01
 3.333166e-01
 3.332629e-01
 3.330920e-01
 3.326381e-01
 3.318652e-01
 3.310867e-01
 3.308412e-01
 3.313118e-01
 3.321946e-01
 3.329453e-01
 3.332365e-01
 3.328965e-01
 3.324494e-01
 3.322138e-01
 3.320701e-01
 3.319602e-01
 3.318482e-01
 3.317751e-01
 3.317669e-01
 3.318397e-01
 3.319880e-01
 3.321920e-01
 3.324268e-01
 3.326646e-01
 3.328775e-01
 3.330466e-01
 3.331548e-01
 3.331907e-01
 3.331643e-01
 3.330842e-01
 3.329621e-01
 3.328118e-01
 3.326456e-01
 3.324742e-01
 3.323042e-01
 3.321405e-01
 3.319850e-01
 3.318597e-01
 3.318222e-01
 3.320822e-01
 3.326948e-01
 3.332435e-01
 3.327677e-01
 3.318132e-01
 3.312080e-01
 3.309748e-01
 3.309187e-01
 3.310195e-01
 3.312374e-01
 3.315148e-01
 3.317908e-01
 3.320385e-01
 3.322680e-01
 3.324968e-01
 3.327337e-01
 3.329733e-01
 3.331961e-01
 3.333851e-01
 3.335212e-01
 3.335964e-01
 3.336069e-01
 3.335639e-01
 3.334821e-01
 3.333783e-01
 3.332636e-01
 3.331245e-01
 3.329157e-01
 3.325714e-01
 3.320603e-01
 3.314473e-01
 3.309144e-01
 3.306940e-01
 3.310591e-01
 3.321208e-01
 3.332943e-01
 3.330566e-01
 3.322041e-01
 3.317250e-01
 3.315570e-01
 3.315199e-01
 3.315205e-01
 3.315359e-01
 3.315867e-01
 3.316910e-01
 3.318606e-01
 3.320911e-01
 3.323683e-01
 3.326679e-01
 3.329645e-01
 3.332289e-01
 3.334397e-01
 3.335800e-01
 3.336489e-01
 3.336571e-01
 3.336319e-01
 3.336176e-01
 3.336366e-01
 3.336038e-01
 3.332279e-01
 3.320529e-01
 3.299061e-01
 3.275905e-01
 3.263549e-01
 3.259780e-01
 3.251349e-01
 3.234013e-01
 3.222475e-01
 3.237369e-01
 3.262331e-01
 3.275996e-01
 3.280028e-01
 3.280545e-01
 3.286852e-01
 3.300258e-01
 3.313692e-01
 3.322405e-01
 3.326095e-01
 3.327459e-01
 3.328474e-01
 3.329986e-01
 3.331905e-01
 3.333812e-01
 3.335318e-01
 3.336179e-01
 3.336267e-01
 3.335731e-01
 3.334881e-01
 3.334152e-01
 3.333801e-01
 3.333396e-01
 3.331454e-01
 3.325967e-01
 3.316567e-01
 3.307248e-01
 3.304812e-01
 3.311338e-01
 3.322426e-01
 3.330598e-01
 3.331771e-01
 3.326366e-01
 3.321008e-01
 3.318883e-01
 3.318110e-01
 3.317686e-01
 3.317017e-01
 3.316521e-01
 3.316557e-01
 3.317382e-01
 3.319021e-01
 3.321327e-01
 3.324024e-01
 3.326790e-01
 3.329290e-01
 3.331275e-01
 3.332570e-01
 3.333047e-01
 3.332809e-01
 3.331953e-01
 3.330608e-01
 3.328906e-01
 3.326971e-01
 3.324894e-01
 3.322738e-01
 3.320562e-01
 3.318427e-01
 3.316655e-01
 3.315994e-01
 3.318954e-01
 3.326142e-01
 3.332938e-01
 3.328202e-01
 3.318028e-01
 3.311430e-01
 3.308503e-01
 3.307517e-01
 3.308361e-01
 3.310604e-01
 3.313538e-01
 3.316451e-01
 3.319071e-01
 3.321550e-01
 3.324104e-01
 3.326815e-01
 3.329579e-01
 3.332149e-01
 3.334323e-01
 3.335870e-01
 3.336724e-01
 3.336853e-01
 3.336385e-01
 3.335493e-01
 3.334381e-01
 3.333161e-01
 3.331644e-01
 3.329254e-01
 3.325219e-01
 3.319233e-01
 3.312190e-01
 3.306401e-01
 3.304650e-01
 3.309868e-01
 3.322158e-01
 3.333329e-01
 3.328840e-01
 3.319645e-01
 3.314880e-01
 3.313307e-01
 3.313158e-01
 3.313425e-01
 3.313800e-01
 3.314485e-01
 3.315694e-01
 3.317599e-01
 3.320196e-01
 3.323322e-01
 3.326713e-01
 3.330048e-01
 3.332969e-01
 3.335238e-01
 3.336669e-01
 3.337261e-01
 3.337172e-01
 3.336797e-01
 3.336719e-01
 3.337202e-01
 3.337230e-01
 3.333501e-01
 3.320923e-01
 3.297521e-01
 3.272781e-01
 3.261636e-01
 3.261985e-01
 3.259596e-01
 3.250634e-01
 3.247549e-01
 3.259409e-01
 3.275180e-01
 3.282975e-01
 3.282691e-01
 3.280536e-01
 3.285824e-01
 3.299550e-01
 3.313708e-01
 3.322118e-01
 3.325557e-01
 3.326802e-01
 3.327889e-01
 3.329587e-01
 3.331698e-01
 3.333842e-01
 3.335524e-01
 3.336469e-01
 3.336565e-01
 3.335991e-01
 3.335145e-01
 3.334518e-01
 3.334330e-01
 3.333977e-01
 3.331734e-01
 3.325395e-01
 3.314674e-01
 3.304266e-01
 3.302077e-01
 3.310330e-01
 3.323397e-01
 3.331918e-01
 3.331174e-01
 3.323978e-01
 3.317834e-01
 3.315919e-01
 3.315809e-01
 3.316059e-01
 3.315835e-01
 3.315548e-01
 3.315660e-01
 3.316551e-01
 3.318335e-01
 3.320886e-01
 3.323901e-01
 3.326991e-01
 3.329768e-01
 3.331983e-01
 3.333410e-01
 3.333995e-01
 3.333808e-01
 3.332964e-01
 3.331580e-01
 3.329786e-01
 3.327682e-01
 3.325335e-01
 3.322772e-01
 3.320045e-01
 3.317241e-01
 3.314785e-01
 3.313651e-01
 3.316801e-01
 3.325140e-01
 3.333588e-01
 3.329106e-01
 3.318368e-01
 3.311233e-01
 3.307745e-01
 3.306375e-01
 3.306988e-01
 3.309154e-01
 3.312084e-01
 3.315056e-01
 3.317775e-01
 3.320422e-01
 3.323217e-01
 3.326222e-01
 3.329286e-01
 3.332133e-01
 3.334522e-01
 3.336231e-01
 3.337187e-01
 3.337368e-01
 3.336905e-01
 3.335995e-01
 3.334854e-01
 3.333583e-01
 3.331932e-01
 3.329243e-01
 3.324687e-01
 3.318012e-01
 3.310333e-01
 3.304342e-01
 3.303227e-01
 3.310053e-01
 3.323415e-01
 3.333003e-01
 3.326901e-01
 3.317556e-01
 3.312967e-01
 3.311502e-01
 3.311486e-01
 3.311915e-01
 3.312431e-01
 3.313244e-01
 3.314598e-01
 3.316708e-01
 3.319577e-01
 3.323022e-01
 3.326720e-01
 3.330312e-01
 3.333438e-01
 3.335824e-01
 3.337290e-01
 3.337818e-01
 3.337623e-01
 3.337191e-01
 3.337200e-01
 3.337913e-01
 3.338200e-01
 3.334574e-01
 3.321647e-01
 3.297086e-01
 3.270900e-01
 3.260132e-01
 3.263446e-01
 3.264711e-01
 3.259221e-01
 3.257960e-01
 3.268294e-01
 3.281040e-01
 3.286137e-01
 3.283302e-01
 3.279743e-01
 3.285259e-01
 3.299524e-01
 3.313915e-01
 3.321770e-01
 3.324883e-01
 3.326081e-01
 3.327254e-01
 3.329072e-01
 3.331380e-01
 3.333691e-01
 3.335504e-01
 3.336522e-01
 3.336643e-01
 3.336089e-01
 3.335308e-01
 3.334812e-01
 3.334743e-01
 3.334347e-01
 3.331768e-01
 3.324764e-01
 3.313175e-01
 3.302163e-01
 3.300310e-01
 3.309951e-01
 3.324584e-01
 3.333345e-01
 3.330841e-01
 3.322012e-01
 3.315082e-01
 3.313278e-01
 3.313758e-01
 3.314659e-01
 3.314901e-01
 3.314823e-01
 3.315009e-01
 3.315959e-01
 3.317867e-01
 3.320617e-01
 3.323863e-01
 3.327174e-01
 3.330176e-01
 3.332515e-01
 3.334072e-01
 3.334759e-01
 3.334657e-01
 3.333868e-01
 3.332517e-01
 3.330718e-01
 3.328548e-01
 3.326023e-01
 3.323117e-01
 3.319831e-01
 3.316266e-01
 3.312970e-01
 3.311209e-01
 3.314408e-01
 3.323982e-01
 3.334331e-01
 3.330267e-01
 3.318967e-01
 3.311278e-01
 3.307272e-01
 3.305608e-01
 3.306007e-01
 3.308015e-01
 3.310844e-01
 3.313789e-01
 3.316573e-01
 3.319367e-01
 3.322367e-01
 3.325597e-01
 3.328891e-01
 3.331949e-01
 3.334516e-01
 3.336364e-01
 3.337425e-01
 3.337673e-01
 3.337255e-01
 3.336364e-01
 3.335227e-01
 3.333909e-01
 3.332116e-01
 3.329146e-01
 3.324176e-01
 3.317023e-01
 3.308971e-01
 3.302974e-01
 3.302542e-01
 3.310810e-01
 3.324835e-01
 3.332522e-01
 3.325187e-01
 3.315869e-01
 3.311487e-01
 3.310139e-01
 3.310213e-01
 3.310731e-01
 3.311318e-01
 3.312219e-01
 3.313705e-01
 3.315999e-01
 3.319091e-01
 3.322756e-01
 3.326653e-01
 3.330424e-01
 3.333686e-01
 3.336180e-01
 3.337690e-01
 3.338205e-01
 3.337963e-01
 3.337524e-01
 3.337611e-01
 3.338476e-01
 3.338946e-01
 3.335526e-01
 3.322721e-01
 3.297654e-01
 3.270036e-01
 3.258789e-01
 3.263928e-01
 3.267637e-01
 3.263830e-01
 3.262873e-01
 3.272172e-01
 3.283413e-01
 3.286669e-01
 3.282197e-01
 3.278319e-01
 3.285006e-01
 3.300028e-01
 3.314335e-01
 3.321393e-01
 3.324127e-01
 3.325288e-01
 3.326520e-01
 3.328483e-01
 3.330932e-01
 3.333396e-01
 3.335320e-01
 3.336410e-01
 3.336582e-01
 3.336084e-01
 3.335400e-01
 3.335017e-01
 3.334990e-01
 3.334460e-01
 3.331561e-01
 3.324141e-01
 3.312192e-01
 3.301046e-01
 3.299501e-01
 3.310052e-01
 3.325793e-01
 3.334799e-01
 3.330911e-01
 3.320669e-01
 3.312973e-01
 3.311109e-01
 3.312029e-01
 3.313475e-01
 3.314160e-01
 3.314331e-01
 3.314639e-01
 3.315674e-01
 3.317688e-01
 3.320557e-01
 3.323913e-01
 3.327344e-01
 3.330456e-01
 3.332920e-01
 3.334576e-01
 3.335369e-01
 3.335355e-01
 3.334647e-01
 3.333367e-01
 3.331630e-01
 3.329476e-01
 3.326863e-01
 3.323675e-01
 3.319841e-01
 3.315459e-01
 3.311230e-01
 3.308754e-01
 3.311909e-01
 3.322685e-01
 3.334982e-01
 3.331438e-01
 3.319622e-01
 3.311425e-01
 3.307039e-01
 3.305217e-01
 3.305432e-01
 3.307222e-01
 3.309849e-01
 3.312695e-01
 3.315501e-01
 3.318403e-01
 3.321552e-01
 3.324953e-01
 3.328418e-01
 3.331644e-01
 3.334352e-01
 3.336330e-01
 3.337486e-01
 3.337819e-01
 3.337463e-01
 3.336618e-01
 3.335492e-01
 3.334118e-01
 3.332174e-01
 3.328960e-01
 3.323703e-01
 3.316304e-01
 3.308132e-01
 3.302283e-01
 3.302479e-01
 3.311912e-01
 3.326343e-01
 3.332241e-01
 3.323905e-01
 3.314594e-01
 3.310307e-01
 3.309010e-01
 3.309137e-01
 3.309741e-01
 3.310415e-01
 3.311418e-01
 3.313034e-01
 3.315478e-01
 3.318718e-01
 3.322513e-01
 3.326544e-01
 3.330440e-01
 3.333813e-01
 3.336385e-01
 3.337947e-01
 3.338473e-01
 3.338223e-01
 3.337790e-01
 3.337916e-01
 3.338844e-01
 3.339439e-01
 3.336350e-01
 3.324136e-01
 3.299250e-01
 3.270329e-01
 3.257525e-01
 3.263337e-01
 3.268955e-01
 3.266278e-01
 3.265097e-01
 3.273624e-01
 3.283844e-01
 3.285569e-01
 3.280096e-01
 3.277096e-01
 3.285570e-01
 3.301160e-01
 3.314944e-01
 3.320915e-01
 3.323195e-01
 3.324278e-01
 3.325698e-01
 3.327849e-01
 3.330477e-01
 3.333055e-01
 3.335066e-01
 3.336212e-01
 3.336437e-01
 3.336011e-01
 3.335415e-01
 3.335094e-01
 3.335015e-01
 3.334284e-01
 3.331119e-01
 3.323577e-01
 3.311788e-01
 3.300949e-01
 3.299624e-01
 3.310540e-01
 3.326853e-01
 3.336088e-01
 3.331228e-01
 3.319801e-01
 3.311344e-01
 3.309263e-01
 3.310540e-01
 3.312470e-01
 3.313615e-01
 3.314071e-01
 3.314539e-01
 3.315660e-01
 3.317725e-01
 3.320626e-01
 3.324025e-01
 3.327524e-01
 3.330704e-01
 3.333234e-01
 3.334970e-01
 3.335840e-01
 3.335908e-01
 3.335279e-01
 3.334090e-01
 3.332450e-01
 3.330375e-01
 3.327747e-01
 3.324345e-01
 3.319998e-01
 3.314801e-01
 3.309625e-01
 3.306441e-01
 3.309494e-01
 3.321313e-01
 3.335352e-01
 3.332388e-01
 3.320130e-01
 3.311516e-01
 3.306930e-01
 3.305115e-01
 3.305221e-01
 3.306768e-01
 3.309119e-01
 3.311783e-01
 3.314547e-01
 3.317505e-01
 3.320780e-01
 3.324326e-01
 3.327941e-01
 3.331295e-01
 3.334115e-01
 3.336188e-01
 3.337434e-01
 3.337845e-01
 3.337555e-01
 3.336753e-01
 3.335623e-01
 3.334170e-01
 3.332068e-01
 3.328659e-01
 3.323257e-01
 3.315836e-01
 3.307781e-01
 3.302183e-01
 3.302895e-01
 3.313167e-01
 3.327815e-01
 3.332170e-01
 3.323055e-01
 3.313751e-01
 3.309487e-01
 3.308170e-01
 3.308292e-01
 3.308946e-01
 3.309734e-01
 3.310877e-01
 3.312642e-01
 3.315197e-01
 3.318504e-01
 3.322353e-01
 3.326439e-01
 3.330395e-01
 3.333837e-01
 3.336472e-01
 3.338083e-01
 3.338641e-01
 3.338399e-01
 3.337962e-01
 3.338064e-01
 3.338961e-01
 3.339631e-01
 3.337004e-01
 3.325855e-01
 3.301968e-01
 3.272018e-01
 3.256453e-01
 3.261677e-01
 3.269031e-01
 3.267446e-01
 3.265787e-01
 3.273593e-01
 3.282834e-01
 3.282991e-01
 3.277141e-01
 3.276347e-01
 3.287229e-01
 3.302996e-01
 3.315707e-01
 3.320369e-01
 3.322083e-01
 3.323197e-01
 3.324832e-01
 3.327232e-01
 3.330035e-01
 3.332724e-01
 3.334796e-01
 3.335981e-01
 3.336251e-01
 3.335882e-01
 3.335338e-01
 3.335000e-01
 3.334776e-01
 3.333798e-01
 3.330458e-01
 3.323092e-01
 3.311946e-01
 3.301806e-01
 3.300620e-01
 3.311368e-01
 3.327735e-01
 3.337165e-01
 3.331800e-01
 3.319480e-01
 3.310272e-01
 3.307767e-01
 3.309242e-01
 3.311602e-01
 3.313224e-01
 3.314042e-01
 3.314715e-01
 3.315916e-01
 3.317974e-01
 3.320846e-01
 3.324229e-01
 3.327753e-01
 3.330951e-01
 3.333519e-01
 3.335293e-01
 3.336216e-01
 3.336335e-01
 3.335769e-01
 3.334662e-01
 3.333130e-01
 3.331166e-01
 3.328582e-01
 3.325036e-01
 3.320245e-01
 3.314292e-01
 3.308230e-01
 3.304413e-01
 3.307337e-01
 3.319930e-01
 3.335309e-01
 3.332985e-01
 3.320460e-01
 3.311549e-01
 3.306944e-01
 3.305253e-01
 3.305327e-01
 3.306633e-01
 3.308669e-01
 3.311075e-01
 3.313732e-01
 3.316717e-01
 3.320092e-01
 3.323766e-01
 3.327502e-01
 3.330958e-01
 3.333859e-01
 3.336003e-01
 3.337310e-01
 3.337782e-01
 3.337540e-01
 3.336759e-01
 3.335595e-01
 3.334035e-01
 3.331774e-01
 3.328230e-01
 3.322827e-01
 3.315600e-01
 3.307876e-01
 3.302612e-01
 3.303709e-01
 3.314491e-01
 3.329143e-01
 3.332184e-01
 3.322463e-01
 3.313178e-01
 3.308902e-01
 3.307527e-01
 3.307628e-01
 3.308322e-01
 3.309266e-01
 3.310594e-01
 3.312510e-01
 3.315140e-01
 3.318469e-01
 3.322312e-01
 3.326397e-01
 3.330357e-01
 3.333820e-01
 3.336484e-01
 3.338131e-01
 3.338719e-01
 3.338488e-01
 3.338018e-01
 3.338021e-01
 3.338788e-01
 3.339472e-01
 3.337400e-01
 3.327759e-01
 3.305761e-01
 3.275392e-01
 3.255959e-01
 3.258931e-01
 3.267842e-01
 3.267707e-01
 3.265440e-01
 3.272508e-01
 3.280611e-01
 3.279054e-01
 3.273691e-01
 3.276533e-01
 3.290115e-01
 3.305526e-01
 3.316467e-01
 3.319674e-01
 3.320925e-01
 3.322098e-01
 3.324002e-01
 3.326651e-01
 3.329631e-01
 3.332408e-01
 3.334523e-01
 3.335726e-01
 3.336024e-01
 3.335684e-01
 3.335134e-01
 3.334695e-01
 3.334247e-01
 3.333005e-01
 3.329600e-01
 3.322688e-01
 3.312596e-01
 3.303497e-01
 3.302396e-01
 3.312503e-01
 3.328389e-01
 3.337893e-01
 3.332456e-01
 3.319616e-01
 3.309755e-01
 3.306676e-01
 3.308162e-01
 3.310869e-01
 3.312998e-01
 3.314238e-01
 3.315157e-01
 3.316424e-01
 3.318445e-01
 3.321237e-01
 3.324556e-01
 3.328045e-01
 3.331226e-01
 3.333786e-01
 3.335568e-01
 3.336507e-01
 3.336652e-01
 3.336120e-01
 3.335072e-01
 3.333638e-01
 3.331797e-01
 3.329298e-01
 3.325684e-01
 3.320548e-01
 3.313953e-01
 3.307125e-01
 3.302772e-01
 3.305525e-01
 3.318518e-01
 3.334718e-01
 3.333149e-01
 3.320659e-01
 3.311603e-01
 3.307118e-01
 3.305611e-01
 3.305692e-01
 3.306799e-01
 3.308498e-01
 3.310617e-01
 3.313124e-01
 3.316093e-01
 3.319531e-01
 3.323295e-01
 3.327120e-01
 3.330648e-01
 3.333603e-01
 3.335788e-01
 3.337131e-01
 3.337636e-01
 3.337415e-01
 3.336622e-01
 3.335389e-01
 3.333697e-01
 3.331285e-01
 3.327673e-01
 3.322407e-01
 3.315567e-01
 3.308363e-01
 3.303517e-01
 3.304890e-01
 3.315871e-01
 3.330294e-01
 3.332186e-01
 3.322032e-01
 3.312801e-01
 3.308508e-01
 3.307046e-01
 3.307106e-01
 3.307870e-01
 3.309014e-01
 3.310568e-01
 3.312639e-01
 3.315328e-01
 3.318633e-01
 3.322421e-01
 3.326446e-01
 3.330355e-01
 3.333786e-01
 3.336441e-01
 3.338101e-01
 3.338709e-01
 3.338478e-01
 3.337941e-01
 3.337773e-01
 3.338307e-01
 3.338915e-01
 3.337409e-01
 3.329583e-01
 3.310391e-01
 3.280791e-01
 3.256910e-01
 3.255282e-01
 3.265019e-01
 3.266918e-01
 3.263989e-01
 3.270240e-01
 3.276931e-01
 3.273668e-01
 3.270357e-01
 3.278223e-01
 3.294253e-01
 3.308464e-01
 3.316937e-01
 3.318861e-01
 3.319751e-01
 3.321068e-01
 3.323248e-01
 3.326144e-01
 3.329272e-01
 3.332117e-01
 3.334247e-01
 3.335448e-01
 3.335746e-01
 3.335393e-01
 3.334771e-01
 3.334153e-01
 3.333427e-01
 3.331935e-01
 3.328583e-01
 3.322364e-01
 3.313646e-01
 3.305862e-01
 3.304862e-01
 3.313956e-01
 3.328829e-01
 3.338163e-01
 3.332995e-01
 3.320052e-01
 3.309726e-01
 3.306040e-01
 3.307343e-01
 3.310322e-01
 3.312948e-01
 3.314643e-01
 3.315818e-01
 3.317150e-01
 3.319113e-01
 3.321788e-01
 3.324997e-01
 3.328402e-01
 3.331525e-01
 3.334041e-01
 3.335798e-01
 3.336728e-01
 3.336867e-01
 3.336342e-01
 3.335323e-01
 3.333961e-01
 3.332236e-01
 3.329854e-01
 3.326252e-01
 3.320901e-01
 3.313830e-01
 3.306402e-01
 3.301608e-01
 3.304096e-01
 3.317046e-01
 3.333550e-01
 3.332930e-01
 3.320847e-01
 3.311778e-01
 3.307507e-01
 3.306159e-01
 3.306287e-01
 3.307223e-01
 3.308616e-01
 3.310443e-01
 3.312777e-01
 3.315684e-01
 3.319141e-01
 3.322944e-01
 3.326819e-01
 3.330381e-01
 3.333359e-01
 3.335554e-01
 3.336901e-01
 3.337408e-01
 3.337172e-01
 3.336330e-01
 3.334996e-01
 3.333157e-01
 3.330614e-01
 3.327004e-01
 3.321996e-01
 3.315701e-01
 3.309176e-01
 3.304836e-01
 3.306405e-01
 3.317299e-01
 3.331215e-01
 3.332068e-01
 3.321639e-01
 3.312530e-01
 3.308257e-01
 3.306703e-01
 3.306728e-01
 3.307605e-01
 3.308994e-01
 3.310796e-01
 3.313025e-01
 3.315746e-01
 3.318994e-01
 3.322676e-01
 3.326587e-01
 3.330391e-01
 3.333743e-01
 3.336347e-01
 3.337990e-01
 3.338598e-01
 3.338351e-01
 3.337716e-01
 3.337318e-01
 3.337526e-01
 3.337936e-01
 3.336884e-01
 3.330954e-01
 3.315338e-01
 3.288303e-01
 3.260667e-01
 3.251614e-01
 3.259932e-01
 3.264371e-01
 3.260794e-01
 3.266061e-01
 3.271094e-01
 3.266894e-01
 3.268372e-01
 3.282120e-01
 3.299362e-01
 3.311363e-01
 3.316935e-01
 3.317902e-01
 3.318645e-01
 3.320160e-01
 3.322613e-01
 3.325716e-01
 3.328961e-01
 3.331834e-01
 3.333954e-01
 3.335124e-01
 3.335391e-01
 3.334977e-01
 3.334225e-01
 3.333371e-01
 3.332344e-01
 3.330642e-01
 3.327464e-01
 3.322119e-01
 3.314984e-01
 3.308710e-01
 3.307902e-01
 3.315761e-01
 3.329106e-01
 3.337924e-01
 3.333229e-01
 3.320594e-01
 3.310078e-01
 3.305867e-01
 3.306862e-01
 3.310031e-01
 3.313115e-01
 3.315233e-01
 3.316652e-01
 3.318040e-01
 3.319934e-01
 3.322475e-01
 3.325533e-01
 3.328807e-01
 3.331837e-01
 3.334274e-01
 3.335978e-01
 3.336873e-01
 3.336985e-01
 3.336442e-01
 3.335424e-01
 3.334103e-01
 3.332478e-01
 3.330231e-01
 3.326725e-01
 3.321314e-01
 3.313975e-01
 3.306149e-01
 3.300998e-01
 3.303081e-01
 3.315549e-01
 3.331917e-01
 3.332503e-01
 3.321152e-01
 3.312178e-01
 3.308129e-01
 3.306902e-01
 3.307075e-01
 3.307885e-01
 3.309017e-01
 3.310576e-01
 3.312714e-01
 3.315529e-01
 3.318950e-01
 3.322745e-01
 3.326610e-01
 3.330164e-01
 3.333123e-01
 3.335293e-01
 3.336611e-01
 3.337084e-01
 3.336800e-01
 3.335877e-01
 3.334419e-01
 3.332435e-01
 3.329796e-01
 3.326256e-01
 3.321608e-01
 3.315977e-01
 3.310254e-01
 3.306503e-01
 3.308217e-01
 3.318764e-01
 3.331873e-01
 3.331732e-01
 3.321189e-01
 3.312285e-01
 3.308105e-01
 3.306508e-01
 3.306518e-01
 3.307561e-01
 3.309216e-01
 3.311267e-01
 3.313634e-01
 3.316366e-01
 3.319523e-01
 3.323061e-01
 3.326810e-01
 3.330462e-01
 3.333687e-01
 3.336194e-01
 3.337784e-01
 3.338365e-01
 3.338083e-01
 3.337327e-01
 3.336660e-01
 3.336470e-01
 3.336554e-01
 3.335741e-01
 3.331501e-01
 3.319797e-01
 3.297296e-01
 3.268604e-01
 3.250260e-01
 3.252196e-01
 3.258098e-01
 3.253625e-01
 3.257655e-01
 3.261662e-01
 3.259818e-01
 3.269825e-01
 3.288539e-01
 3.304706e-01
 3.313589e-01
 3.316373e-01
 3.316869e-01
 3.317670e-01
 3.319424e-01
 3.322107e-01
 3.325365e-01
 3.328667e-01
 3.331537e-01
 3.333613e-01
 3.334725e-01
 3.334925e-01
 3.334411e-01
 3.333485e-01
 3.332370e-01
 3.331055e-01
 3.329214e-01
 3.326322e-01
 3.321969e-01
 3.316508e-01
 3.311845e-01
 3.311374e-01
 3.317948e-01
 3.329377e-01
 3.337215e-01
 3.333032e-01
 3.321062e-01
 3.310689e-01
 3.306144e-01
 3.306804e-01
 3.310082e-01
 3.313534e-01
 3.316000e-01
 3.317614e-01
 3.319030e-01
 3.320848e-01
 3.323233e-01
 3.326121e-01
 3.329217e-01
 3.332134e-01
 3.334462e-01
 3.336089e-01
 3.336927e-01
 3.336998e-01
 3.336424e-01
 3.335387e-01
 3.334083e-01
 3.332537e-01
 3.330438e-01
 3.327105e-01
 3.321802e-01
 3.314435e-01
 3.306441e-01
 3.301016e-01
 3.302535e-01
 3.314113e-01
 3.330024e-01
 3.332092e-01
 3.321719e-01
 3.312882e-01
 3.309001e-01
 3.307838e-01
 3.308061e-01
 3.308757e-01
 3.309686e-01
 3.311008e-01
 3.312938e-01
 3.315612e-01
 3.318953e-01
 3.322678e-01
 3.326490e-01
 3.329985e-01
 3.332888e-01
 3.334990e-01
 3.336243e-01
 3.336648e-01
 3.336287e-01
 3.335262e-01
 3.333679e-01
 3.331571e-01
 3.328886e-01
 3.325489e-01
 3.321278e-01
 3.316390e-01
 3.311540e-01
 3.308444e-01
 3.310270e-01
 3.320245e-01
 3.332240e-01
 3.331124e-01
 3.320607e-01
 3.312006e-01
 3.308032e-01
 3.306474e-01
 3.306535e-01
 3.307774e-01
 3.309691e-01
 3.311960e-01
 3.314413e-01
 3.317121e-01
 3.320166e-01
 3.323537e-01
 3.327093e-01
 3.330551e-01
 3.333602e-01
 3.335970e-01
 3.337463e-01
 3.337986e-01
 3.337646e-01
 3.336757e-01
 3.335805e-01
 3.335180e-01
 3.334835e-01
 3.334014e-01
 3.331009e-01
 3.322901e-01
 3.306217e-01
 3.280721e-01
 3.255277e-01
 3.243991e-01
 3.243973e-01
 3.233819e-01
 3.236544e-01
 3.246508e-01
 3.256070e-01
 3.276717e-01
 3.296500e-01
 3.309072e-01
 3.314650e-01
 3.315360e-01
 3.315868e-01
 3.316912e-01
 3.318897e-01
 3.321741e-01
 3.325064e-01
 3.328365e-01
 3.331178e-01
 3.333186e-01
 3.334208e-01
 3.334317e-01
 3.333678e-01
 3.332566e-01
 3.331205e-01
 3.329658e-01
 3.327771e-01
 3.325267e-01
 3.321958e-01
 3.318148e-01
 3.315092e-01
 3.315105e-01
 3.320484e-01
 3.329758e-01
 3.336130e-01
 3.332354e-01
 3.321324e-01
 3.311449e-01
 3.306848e-01
 3.307251e-01
 3.310565e-01
 3.314227e-01
 3.316931e-01
 3.318667e-01
 3.320080e-01
 3.321803e-01
 3.324029e-01
 3.326717e-01
 3.329608e-01
 3.332373e-01
 3.334572e-01
 3.336091e-01
 3.336860e-01
 3.336884e-01
 3.336282e-01
 3.335226e-01
 3.333928e-01
 3.332445e-01
 3.330499e-01
 3.327406e-01
 3.322376e-01
 3.315233e-01
 3.307322e-01
 3.301715e-01
 3.302507e-01
 3.312810e-01
 3.328007e-01
 3.331819e-01
 3.322595e-01
 3.313926e-01
 3.310145e-01
 3.309038e-01
 3.309277e-01
 3.309857e-01
 3.310613e-01
 3.311731e-01
 3.313458e-01
 3.315937e-01
 3.319118e-01
 3.322716e-01
 3.326410e-01
 3.329799e-01
 3.332592e-01
 3.334599e-01
 3.335756e-01
 3.336073e-01
 3.335620e-01
 3.334496e-01
 3.332811e-01
 3.330630e-01
 3.327968e-01