# vtk DataFile Version 2.0
Generated by vtk_extract.c
ASCII
DATASET STRUCTURED_POINTS
DIMENSIONS 128 25 25
ORIGIN 0 0 0
SPACING 1 1 1
POINT_DATA 80000
VECTORS vel float
 3.196289e-04  2.462543e-04 -1.078829e-04
 1.630144e-04  1.951441e-04 -8.223250e-05
 5.586270e-05  1.422920e-04 -5.451769e-05
-1.142481e-05  9.438663e-05 -2.826595e-05
-5.272584e-05  5.462998e-05 -5.672786e-06
-7.883811e-05  2.250797e-05  1.194599e-05
-9.829568e-05 -3.054303e-06  2.499033e-05
-1.147585e-04 -2.331579e-05  3.450584e-05
-1.303335e-04 -3.959280e-05  4.151211e-05
-1.443221e-04 -5.270789e-05  4.657328e-05
-1.563592e-04 -6.286755e-05  4.980869e-05
-1.649575e-04 -6.950160e-05  5.043144e-05
-1.696702e-04 -7.126820e-05  4.734056e-05
-1.704589e-04 -6.613854e-05  3.925735e-05
-1.699898e-04 -5.214084e-05  2.501523e-05
-1.726550e-04 -2.808562e-05  3.822434e-06
-1.845215e-04  5.289846e-06 -2.418673e-05
-2.086096e-04  4.439698e-05 -5.814954e-05
-2.400787e-04  8.255155e-05 -9.590191e-05
-2.609841e-04  1.111252e-04 -1.325835e-04
-2.441209e-04  1.216937e-04 -1.603141e-04
-1.664617e-04  1.083991e-04 -1.537517e-04
-6.208468e-05  7.085488e-05 -9.104750e-05
-2.573222e-05  3.022073e-05  2.525250e-06
-9.633095e-05 -1.511118e-05  8.348237e-05
-1.832157e-04 -5.573019e-05  8.949045e-05
-1.570863e-04 -5.874181e-05  4.295163e-05
 5.038629e-06 -3.415468e-05 -1.017109e-05
 2.209422e-04 -2.228071e-07 -4.016211e-05
 3.962142e-04  2.790524e-05 -3.691082e-05
 4.975798e-04  4.921263e-05 -2.126327e-05
 5.294858e-04  6.373024e-05 -6.022087e-06
 5.096196e-04  7.250700e-05  4.205473e-06
 4.563993e-04  7.578183e-05  9.259710e-06
 3.850782e-04  7.435073e-05  1.112786e-05
 3.057327e-04  6.859953e-05  1.098751e-05
 2.246887e-04  5.975205e-05  1.057659e-05
 1.445133e-04  4.861208e-05  1.039358e-05
 6.583628e-05  3.663840e-05  1.162128e-05
-1.202730e-05  2.434291e-05  1.399601e-05
-8.996818e-05  1.229667e-05  1.773461e-05
-1.689989e-04  6.833383e-07  2.257958e-05
-2.490637e-04 -1.055015e-05  2.782322e-05
-3.291685e-04 -2.139483e-05  3.295085e-05
-4.068971e-04 -3.161495e-05  3.732208e-05
-4.788778e-04 -4.079177e-05  4.021063e-05
-5.405290e-04 -4.827064e-05  4.063493e-05
-5.862341e-04 -5.320679e-05  3.735800e-05
-6.088639e-04 -5.465978e-05  2.881383e-05
-5.992591e-04 -5.184120e-05  1.287343e-05
-5.453133e-04 -4.420627e-05 -1.213976e-05
-4.333477e-04 -3.239855e-05 -4.553786e-05
-2.538841e-04 -1.759793e-05 -8.074815e-05
-1.712837e-05 -5.490493e-06 -8.562569e-05
 1.840485e-04  4.275958e-06 -2.439072e-05
 1.878352e-04  2.239278e-05  4.328996e-05
 7.635074e-05  4.426012e-05  2.175604e-05
 8.944653e-05  7.905591e-05 -8.470425e-05
 2.581016e-04  1.186417e-04 -1.520561e-04
 4.082622e-04  1.448853e-04 -1.498235e-04
 4.789407e-04  1.585851e-04 -1.201476e-04
 4.755603e-04  1.612498e-04 -8.837166e-05
 4.218739e-04  1.542547e-04 -6.065297e-05
 3.428634e-04  1.393472e-04 -3.867338e-05
 2.581906e-04  1.195979e-04 -2.149887e-05
 1.799467e-04  9.756489e-05 -8.286396e-06
 1.133919e-04  7.530440e-05  1.505633e-06
 6.002396e-05  5.414723e-05  8.540296e-06
 1.864623e-05  3.463550e-05  1.331010e-05
-1.278671e-05  1.704912e-05  1.655971e-05
-3.710841e-05  1.379390e-06  1.922045e-05
-5.720453e-05 -1.249808e-05  2.187808e-05
-7.498342e-05 -2.461296e-05  2.518290e-05
-9.203480e-05 -3.519284e-05  2.891489e-05
-1.092978e-04 -4.388823e-05  3.294141e-05
-1.276642e-04 -5.032601e-05  3.608178e-05
-1.474281e-04 -5.348314e-05  3.711891e-05
-1.688538e-04 -5.212693e-05  3.461487e-05
-1.923291e-04 -4.502186e-05  2.730046e-05
-2.189916e-04 -3.131172e-05  1.425308e-05
-2.496670e-04 -1.102659e-05 -4.971673e-06
-2.839051e-04  1.458600e-05 -3.017116e-05
-3.167848e-04  4.285252e-05 -6.115133e-05
-3.366361e-04  7.006855e-05 -9.655379e-05
-3.241309e-04  9.161858e-05 -1.335939e-04
-2.567875e-04  1.031699e-04 -1.630636e-04
-1.268106e-04  9.795726e-05 -1.548119e-04
 1.413080e-06  7.668703e-05 -7.282862e-05
-2.336653e-05  4.967270e-05  3.379221e-05
-1.282275e-04  1.616942e-05  4.810238e-05
-8.738369e-05  3.685737e-06 -2.900906e-05
 1.505070e-04  1.539240e-05 -8.526762e-05
 3.921921e-04  2.811274e-05 -7.380151e-05
 5.458798e-04  3.916385e-05 -3.637695e-05
 6.169897e-04  4.962982e-05 -7.470797e-06
 6.190780e-04  5.875759e-05  1.359424e-05
 5.720502e-04  6.519841e-05  2.559170e-05
 4.944816e-04  6.758692e-05  3.074372e-05
 4.017876e-04  6.514524e-05  3.143011e-05
 3.055495e-04  5.770818e-05  2.930587e-05
 2.141227e-04  4.594742e-05  2.639045e-05
 1.322554e-04  3.093324e-05  2.373717e-05
 6.265787e-05  1.385125e-05  2.207716e-05
 5.716967e-06 -3.693693e-06  2.207273e-05
-3.878158e-05 -2.069841e-05  2.328238e-05
-7.201954e-05 -3.581702e-05  2.494044e-05
-9.459970e-05 -4.771798e-05  2.531619e-05
-1.077794e-04 -5.445508e-05  2.266164e-05
-1.133478e-04 -5.337479e-05  1.531253e-05
-1.162323e-04 -4.155004e-05  1.880489e-06
-1.253019e-04 -1.630016e-05 -1.818448e-05
-1.557371e-04  2.325851e-05 -4.407410e-05
-2.260691e-04  7.429221e-05 -7.347692e-05
-3.520274e-04  1.280182e-04 -1.021343e-04
-5.332681e-04  1.697824e-04 -1.242061e-04
-7.439933e-04  1.816302e-04 -1.328541e-04
-9.279885e-04  1.499483e-04 -1.225342e-04
-1.009964e-03  6.264289e-05 -8.963404e-05
-8.959272e-04 -6.719402e-05 -4.062591e-05
-5.249546e-04 -1.822043e-04  3.115494e-05
-3.804291e-05 -2.809012e-04  1.447456e-04
 4.160800e-04 -2.506076e-04  1.400732e-04
 8.238175e-04 -1.166647e-04  3.532213e-05
 1.077152e-03  2.916404e-05 -3.809640e-05
 1.103108e-03  1.710798e-04 -9.036480e-05
 9.687741e-04  2.575144e-04 -1.207148e-04
 7.548575e-04  2.914762e-04 -1.318684e-04
 5.235267e-04  2.828457e-04 -1.263762e-04
 1.502313e-04  7.459736e-04 -8.998019e-05
 2.803270e-05  5.669329e-04 -6.382569e-05
-4.865002e-05  3.922160e-04 -3.609756e-05
-9.692200e-05  2.454920e-04 -1.026320e-05
-1.330109e-04  1.313330e-04  1.101467e-05
-1.676332e-04  4.538134e-05  2.712041e-05
-2.052449e-04 -1.969952e-05  3.830161e-05
-2.474535e-04 -6.997445e-05  4.643354e-05
-2.927124e-04 -1.111034e-04  5.206456e-05
-3.383719e-04 -1.457940e-04  5.603477e-05
-3.810214e-04 -1.749299e-04  5.801036e-05
-4.169839e-04 -1.963339e-04  5.724397e-05
-4.422376e-04 -2.053454e-04  5.256808e-05
-4.537885e-04 -1.949481e-04  4.276117e-05
-4.513418e-04 -1.571440e-04  2.668664e-05
-4.383885e-04 -8.596760e-05  3.619482e-06
-4.218632e-04  1.843410e-05 -2.641291e-05
-4.078520e-04  1.451487e-04 -6.237034e-05
-3.933774e-04  2.685334e-04 -1.018619e-04
-3.593378e-04  3.560245e-04 -1.389516e-04
-2.739104e-04  3.741970e-04 -1.646292e-04
-1.200126e-04  3.189946e-04 -1.529358e-04
 5.011439e-05  1.900931e-04 -8.533082e-05
 1.118670e-04  5.621724e-05  1.377089e-05
 2.248045e-05 -1.073970e-04  8.799027e-05
-6.843788e-05 -2.417828e-04  8.023495e-05
-6.700981e-06 -2.251668e-04  3.185068e-05
 2.107998e-04 -1.488247e-04 -2.171186e-05
 4.815474e-04 -5.051099e-05 -4.567336e-05
 6.944392e-04  3.633705e-05 -3.728731e-05
 8.050371e-04  1.080610e-04 -1.597634e-05
 8.160967e-04  1.586259e-04  4.766107e-06
 7.532724e-04  1.908905e-04  1.940720e-05
 6.448182e-04  2.058241e-04  2.746608e-05
 5.139037e-04  2.059095e-04  3.046052e-05
 3.767005e-04  1.937000e-04  3.046483e-05
 2.425252e-04  1.720904e-04  2.914882e-05
 1.151936e-04  1.442640e-04  2.781641e-05
-5.073465e-06  1.131778e-04  2.770578e-05
-1.204731e-04  8.075700e-05  2.885670e-05
-2.335677e-04  4.831092e-05  3.144242e-05
-3.471604e-04  1.658299e-05  3.511888e-05
-4.625843e-04 -1.439303e-05  3.913985e-05
-5.791841e-04 -4.469863e-05  4.283121e-05
-6.941182e-04 -7.401754e-05  4.551899e-05
-8.025864e-04 -1.014029e-04  4.629745e-05
-8.979056e-04 -1.253680e-04  4.418387e-05
-9.716122e-04 -1.439403e-04  3.791374e-05
-1.012527e-03 -1.550240e-04  2.592197e-05
-1.005835e-03 -1.572931e-04  6.237536e-06
-9.319669e-04 -1.495512e-04 -2.264495e-05
-7.690731e-04 -1.336381e-04 -5.892699e-05
-5.069295e-04 -1.076041e-04 -9.439148e-05
-1.725471e-04 -7.743883e-05 -9.609749e-05
 9.887008e-05 -3.472086e-05 -2.714658e-05
 1.114940e-04  1.136679e-05  4.455056e-05
-1.197706e-05  7.099916e-05  2.135457e-05
 2.876804e-05  2.008470e-04 -8.362328e-05
 2.579715e-04  3.114029e-04 -1.472813e-04
 4.782925e-04  4.055092e-04 -1.441131e-04
 6.023015e-04  4.601437e-04 -1.141288e-04
 6.218149e-04  4.744367e-04 -7.884217e-05
 5.656404e-04  4.510575e-04 -4.777457e-05
 4.684222e-04  4.001525e-04 -2.302071e-05
 3.572832e-04  3.336582e-04 -4.192413e-06
 2.483505e-04  2.633675e-04  9.823018e-06
 1.491438e-04  1.965317e-04  1.960477e-05
 6.222767e-05  1.368261e-04  2.596171e-05
-1.189134e-05  8.526641e-05  2.979274e-05
-7.418626e-05  4.066073e-05  3.197844e-05
-1.271337e-04  2.233043e-06  3.368748e-05
-1.736270e-04 -3.209257e-05  3.543051e-05
-2.160977e-04 -6.303973e-05  3.775432e-05
-2.561534e-04 -9.144033e-05  4.032931e-05
-2.948662e-04 -1.164006e-04  4.284805e-05
-3.328452e-04 -1.360908e-04  4.422374e-05
-3.695107e-04 -1.468846e-04  4.321956e-05
-4.038431e-04 -1.442097e-04  3.860297e-05
-4.347203e-04 -1.233545e-04  2.911249e-05
-4.616612e-04 -8.067787e-05  1.382263e-05
-4.845126e-04 -1.588093e-05 -7.724393e-06
-5.017161e-04  6.718959e-05 -3.556770e-05
-5.069420e-04  1.579490e-04 -6.943102e-05
-4.852506e-04  2.422292e-04 -1.077219e-04
-4.119883e-04  2.997834e-04 -1.465609e-04
-2.648394e-04  3.205737e-04 -1.747352e-04
-4.707754e-05  2.816165e-04 -1.622168e-04
 1.428649e-04  2.062994e-04 -7.238600e-05
 1.314821e-04  7.568399e-05  3.408994e-05
 3.206529e-05 -4.876199e-05  4.414391e-05
 1.257717e-04 -5.673342e-05 -3.543445e-05
 4.413094e-04 -3.643164e-05 -8.621200e-05
 7.628439e-04  1.440061e-05 -7.378857e-05
 9.700663e-04  6.841733e-05 -3.538226e-05
 1.050261e-03  1.127471e-04 -6.486782e-07
 1.024848e-03  1.485398e-04  2.537198e-05
 9.244201e-04  1.720425e-04  4.127027e-05
 7.796014e-04  1.828324e-04  4.844332e-05
 6.149061e-04  1.794121e-04  4.942351e-05
 4.488939e-04  1.624533e-04  4.659442e-05
 2.942534e-04  1.334161e-04  4.200016e-05
 1.580336e-04  9.513850e-05  3.758204e-05
 4.329754e-05  5.045897e-05  3.401153e-05
-5.064156e-05  3.296517e-06  3.235836e-05
-1.252625e-04 -4.369669e-05  3.193517e-05
-1.827602e-04 -8.673499e-05  3.195998e-05
-2.236813e-04 -1.216456e-04  3.058756e-05
-2.477544e-04 -1.423797e-04  2.612296e-05
-2.539947e-04 -1.411533e-04  1.691388e-05
-2.436021e-04 -1.079465e-04  1.758914e-06
-2.227409e-04 -3.232367e-05 -1.979312e-05
-2.069544e-04  9.334210e-05 -4.681802e-05
-2.209658e-04  2.646593e-04 -7.667443e-05
-2.909254e-04  4.542959e-04 -1.046441e-04
-4.270720e-04  6.065787e-04 -1.239564e-04
-6.097839e-04  6.556172e-04 -1.267251e-04
-7.925856e-04  5.455860e-04 -1.070318e-04
-9.189126e-04  2.634894e-04 -6.205479e-05
-9.664605e-04 -1.995942e-04 -4.637066e-06
-7.501658e-04 -8.496619e-04  6.901982e-05
-7.102166e-05 -1.394679e-03  1.660452e-04
 6.461684e-04 -1.247488e-03  1.722412e-04
 1.069969e-03 -4.972153e-04  7.580168e-05
 1.066947e-03  1.345131e-04 -8.488879e-07
 9.367563e-04  5.646669e-04 -5.762901e-05
 7.553526e-04  8.315045e-04 -9.481401e-05
 5.370359e-04  9.297215e-04 -1.110714e-04
 3.247075e-04  8.861034e-04 -1.074690e-04
-8.627117e-05  1.222536e-03 -7.856616e-05
-2.197522e-04  9.060718e-04 -4.675758e-05
-3.128265e-04  6.045362e-04 -1.514506e-05
-3.762490e-04  3.566742e-04  1.294533e-05
-4.216901e-04  1.686039e-04  3.502615e-05
-4.575185e-04  3.060363e-05  5.094605e-05
-4.891925e-04 -7.141852e-05  6.169901e-05
-5.185442e-04 -1.498314e-04  6.903383e-05
-5.459885e-04 -2.145535e-04  7.409283e-05
-5.690326e-04 -2.708711e-04  7.701499e-05
-5.854375e-04 -3.191405e-04  7.769467e-05
-5.919665e-04 -3.555396e-04  7.488817e-05
-5.864046e-04 -3.712233e-04  6.741908e-05
-5.688557e-04 -3.537108e-04  5.434745e-05
-5.419485e-04 -2.888297e-04  3.458224e-05
-5.111520e-04 -1.653705e-04  7.331077e-06
-4.831900e-04  1.710043e-05 -2.754367e-05
-4.617690e-04  2.391514e-04 -6.914412e-05
-4.399055e-04  4.537920e-04 -1.144611e-04
-3.945998e-04  5.998252e-04 -1.567335e-04
-2.943292e-04  6.219471e-04 -1.848051e-04
-1.245028e-04  5.163715e-04 -1.710475e-04
 5.437357e-05  3.016466e-04 -9.390640e-05
 1.027193e-04  8.280191e-05  1.751704e-05
 4.963787e-06 -1.969844e-04  9.040542e-05
-7.788346e-05 -4.124677e-04  7.218077e-05
 3.016719e-06 -3.949704e-04  1.757983e-05
 2.550259e-04 -2.803746e-04 -3.438107e-05
 5.496482e-04 -1.271930e-04 -4.601930e-05
 7.723072e-04  1.889828e-05 -2.638415e-05
 8.810706e-04  1.443715e-04  2.700276e-06
 8.788257e-04  2.370859e-04  2.883925e-05
 7.930408e-04  2.963071e-04  4.630019e-05
 6.551127e-04  3.245584e-04  5.523201e-05
 4.930621e-04  3.260223e-04  5.764307e-05
 3.264682e-04  3.060269e-04  5.602388e-05
 1.675308e-04  2.703058e-04  5.289981e-05
 2.128779e-05  2.243312e-04  4.980971e-05
-1.123205e-04  1.731214e-04  4.844178e-05
-2.363643e-04  1.200829e-04  4.879936e-05
-3.552019e-04  6.714900e-05  5.101535e-05
-4.732218e-04  1.598654e-05  5.456628e-05
-5.930410e-04 -3.349425e-05  5.843610e-05
-7.146106e-04 -8.172633e-05  6.181309e-05
-8.349498e-04 -1.285570e-04  6.376902e-05
-9.487685e-04 -1.728478e-04  6.339366e-05
-1.048575e-03 -2.126131e-04  5.960538e-05
-1.124359e-03 -2.454017e-04  5.108007e-05
-1.162984e-03 -2.687860e-04  3.617723e-05
-1.147038e-03 -2.813569e-04  1.268270e-05
-1.054557e-03 -2.819453e-04 -2.087062e-05
-8.637385e-04 -2.709264e-04 -6.200983e-05
-5.698974e-04 -2.388228e-04 -1.020137e-04
-2.078233e-04 -1.828002e-04 -1.053045e-04
 7.776144e-05 -8.464245e-05 -2.874316e-05
 9.312859e-05  6.538424e-06  4.740132e-05
-1.756182e-05  1.032308e-04  1.241481e-05
 4.427219e-05  3.117326e-04 -9.870208e-05
 2.756955e-04  4.860016e-04 -1.550244e-04
 4.891335e-04  6.481220e-04 -1.443834e-04
 6.069335e-04  7.503577e-04 -1.082298e-04
 6.126853e-04  7.816751e-04 -6.680829e-05
 5.329170e-04  7.435781e-04 -2.999577e-05
 4.038440e-04  6.537740e-04 -6.969070e-07
 2.567970e-04  5.355134e-04  2.116997e-05
 1.120948e-04  4.110783e-04  3.672055e-05
-1.872877e-05  2.945244e-04  4.689777e-05
-1.299003e-04  1.925762e-04  5.270429e-05
-2.193284e-04  1.060038e-04  5.540919e-05
-2.875504e-04  3.289312e-05  5.633574e-05
-3.376291e-04 -2.944662e-05  5.687868e-05
-3.736615e-04 -8.455196e-05  5.760111e-05
-3.990980e-04 -1.345565e-04  5.890837e-05
-4.169371e-04 -1.807055e-04  6.024812e-05
-4.295428e-04 -2.211262e-04  6.119368e-05
-4.392003e-04 -2.521772e-04  6.048124e-05
-4.479202e-04 -2.674652e-04  5.708486e-05
-4.572608e-04 -2.591307e-04  4.985417e-05
-4.684483e-04 -2.192792e-04  3.762619e-05
-4.823261e-04 -1.419130e-04  1.943078e-05
-4.984279e-04 -2.668335e-05 -5.448882e-06
-5.132784e-04  1.187329e-04 -3.721102e-05
-5.169471e-04  2.750432e-04 -7.577561e-05
-4.899629e-04  4.146528e-04 -1.193830e-04
-4.053298e-04  5.038596e-04 -1.631880e-04
-2.416640e-04  5.262699e-04 -1.954235e-04
-6.974352e-06  4.547616e-04 -1.820583e-04
 1.890316e-04  3.320434e-04 -8.170294e-05
 1.848434e-04  9.912559e-05  3.012009e-05
 1.061707e-04 -1.229053e-04  3.516773e-05
 2.307083e-04 -1.474799e-04 -4.640305e-05
 5.592029e-04 -1.255629e-04 -8.542408e-05
 8.809683e-04 -3.665832e-05 -6.325305e-05
 1.092277e-03  6.473953e-05 -1.919652e-05
 1.166649e-03  1.534323e-04  2.201789e-05
 1.121237e-03  2.233427e-04  5.263442e-05
 9.897619e-04  2.689283e-04  7.069679e-05
 8.067557e-04  2.905170e-04  7.855213e-05
 6.022884e-04  2.864534e-04  7.857447e-05
 3.995453e-04  2.588643e-04  7.398458e-05
 2.144784e-04  2.105139e-04  6.742155e-05
 5.673742e-05  1.460060e-04  6.096727e-05
-7.016203e-05  7.071202e-05  5.578972e-05
-1.659392e-04 -9.656519e-06  5.276074e-05
-2.329591e-04 -9.000169e-05  5.111101e-05
-2.730381e-04 -1.640531e-04  4.969250e-05
-2.879437e-04 -2.242929e-04  4.637703e-05
-2.781419e-04 -2.605363e-04  3.921374e-05
-2.458754e-04 -2.592919e-04  2.674558e-05
-1.960648e-04 -2.035314e-04  7.893760e-06
-1.397853e-04 -7.407166e-05 -1.754001e-05
-9.531615e-05  1.436581e-04 -4.860779e-05
-8.710968e-05  4.440104e-04 -8.279206e-05
-1.373513e-04  7.784743e-04 -1.151753e-04
-2.526358e-04  1.048022e-03 -1.387302e-04
-4.108862e-04  1.132067e-03 -1.434532e-04
-5.730429e-04  9.521576e-04 -1.240356e-04
-7.006710e-04  4.871019e-04 -7.499080e-05
-7.523405e-04 -2.393574e-04 -1.205189e-05
-7.400056e-04 -1.344500e-03  4.307531e-05
-2.291838e-04 -2.945266e-03  2.115382e-04
 5.304238e-04 -2.551315e-03  2.148992e-04
 8.238810e-04 -6.644041e-04  4.598142e-05
 7.707551e-04  3.172829e-04 -1.605351e-05
 6.600263e-04  9.937764e-04 -7.062511e-05
 4.893504e-04  1.407385e-03 -1.035717e-04
 2.910546e-04  1.561403e-03 -1.131840e-04
 8.885773e-05  1.473887e-03 -1.029714e-04
-3.332370e-04  1.656994e-03 -6.102573e-05
-4.590688e-04  1.207550e-03 -2.616178e-05
-5.636214e-04  7.802864e-04  7.494348e-06
-6.446518e-04  4.282961e-04  3.522571e-05
-7.050645e-04  1.620629e-04  5.599304e-05
-7.471514e-04 -3.180527e-05  6.956109e-05
-7.743483e-04 -1.733567e-04  7.768567e-05
-7.886283e-04 -2.814443e-04  8.216607e-05
-7.900262e-04 -3.704026e-04  8.385229e-05
-7.783089e-04 -4.474556e-04  8.330697e-05
-7.526309e-04 -5.129340e-04  8.030954e-05
-7.146227e-04 -5.595859e-04  7.438158e-05
-6.677476e-04 -5.740969e-04  6.467120e-05
-6.168707e-04 -5.388378e-04  5.014252e-05
-5.676029e-04 -4.345513e-04  2.944597e-05
-5.248660e-04 -2.471548e-04  1.297912e-06
-4.913421e-04  2.266188e-05 -3.503080e-05
-4.644336e-04  3.453966e-04 -7.880098e-05
-4.313319e-04  6.529897e-04 -1.265831e-04
-3.686617e-04  8.573288e-04 -1.703746e-04
-2.488316e-04  8.829360e-04 -1.963451e-04
-6.914807e-05  7.247881e-04 -1.760333e-04
 1.000294e-04  4.253995e-04 -9.003745e-05
 1.179093e-04  1.086895e-04  2.733831e-05
-4.464682e-06 -2.924922e-04  9.256035e-05
-8.857080e-05 -5.678359e-04  6.517934e-05
 3.314194e-06 -5.548160e-04  5.920782e-06
 2.677883e-04 -4.256258e-04 -4.040211e-05
 5.579584e-04 -2.325345e-04 -3.641442e-05
 7.623459e-04 -3.981826e-05 -5.545981e-06
 8.498657e-04  1.331598e-04  2.934031e-05
 8.273187e-04  2.657260e-04  5.713700e-05
 7.221799e-04  3.545107e-04  7.445753e-05
 5.666996e-04  3.993586e-04  8.143930e-05
 3.890808e-04  4.063095e-04  8.135995e-05
 2.106294e-04  3.823047e-04  7.691867e-05
 4.427448e-05  3.354208e-04  7.098080e-05
-1.045172e-04  2.738330e-04  6.556126e-05
-2.357891e-04  2.042578e-04  6.219129e-05
-3.533482e-04  1.318005e-04  6.099945e-05
-4.618753e-04  5.949728e-05  6.180972e-05
-5.664567e-04 -1.017122e-05  6.397939e-05
-6.702579e-04 -7.699976e-05  6.636052e-05
-7.743580e-04 -1.418580e-04  6.821487e-05
-8.775794e-04 -2.049463e-04  6.902254e-05
-9.762244e-04 -2.652167e-04  6.790114e-05
-1.063340e-03 -3.207461e-04  6.369108e-05
-1.128610e-03 -3.690208e-04  5.480167e-05
-1.157563e-03 -4.072852e-04  3.926100e-05
-1.131497e-03 -4.338640e-04  1.482326e-05
-1.028334e-03 -4.457538e-04 -1.975541e-05
-8.285201e-04 -4.403222e-04 -6.099363e-05
-5.321914e-04 -3.988770e-04 -9.975512e-05
-1.755515e-04 -3.137923e-04 -9.857372e-05
 9.236370e-05 -1.564272e-04 -1.467949e-05
 8.537114e-05 -2.069204e-05  5.715178e-05
-2.273221e-05  1.296896e-04  5.382978e-06
 5.517570e-05  4.217269e-04 -1.041032e-04
 2.709207e-04  6.622564e-04 -1.480324e-04
 4.561104e-04  8.829733e-04 -1.290833e-04
 5.489297e-04  1.024061e-03 -8.934823e-05
 5.334016e-04  1.067074e-03 -4.619327e-05
 4.317916e-04  1.010908e-03 -7.907821e-06
 2.784716e-04  8.797408e-04  2.234436e-05
 1.045294e-04  7.071583e-04  4.511462e-05
-6.645387e-05  5.252386e-04  6.057399e-05
-2.204021e-04  3.553195e-04  6.986239e-05
-3.485288e-04  2.075200e-04  7.405576e-05
-4.470216e-04  8.357748e-05  7.450673e-05
-5.155390e-04 -1.957853e-05  7.258772e-05
-5.565769e-04 -1.063275e-04  6.996611e-05
-5.737647e-04 -1.821895e-04  6.711649e-05
-5.710753e-04 -2.505853e-04  6.470269e-05
-5.528316e-04 -3.126160e-04  6.243872e-05
-5.246288e-04 -3.656306e-04  6.032233e-05
-4.929409e-04 -4.033615e-04  5.749387e-05
-4.639016e-04 -4.164430e-04  5.280557e-05
-4.423203e-04 -3.941655e-04  4.503851e-05
-4.315023e-04 -3.261017e-04  3.273746e-05
-4.322526e-04 -2.052946e-04  1.459628e-05
-4.424427e-04 -3.258759e-05 -1.042709e-05
-4.548729e-04  1.793768e-04 -4.290040e-05
-4.554393e-04  4.015038e-04 -8.259573e-05
-4.219872e-04  5.941357e-04 -1.274971e-04
-3.279495e-04  7.115211e-04 -1.715983e-04
-1.566337e-04  7.327167e-04 -2.029566e-04
 8.139691e-05  6.280557e-04 -1.846911e-04
 2.679672e-04  4.532017e-04 -7.449097e-05
 2.490435e-04  1.051905e-04  3.222655e-05
 1.827763e-04 -2.163571e-04  2.713926e-05
 3.285512e-04 -2.561545e-04 -4.903686e-05
 6.387843e-04 -2.373650e-04 -7.174909e-05
 9.252191e-04 -1.213123e-04 -3.922121e-05
 1.102761e-03  1.451575e-05  7.775167e-06
 1.148406e-03  1.438495e-04  5.066077e-05
 1.078373e-03  2.480770e-04  8.100777e-05
 9.233940e-04  3.188712e-04  9.844617e-05
 7.187403e-04  3.543653e-04  1.046502e-04
 4.947356e-04  3.531115e-04  1.030534e-04
 2.761238e-04  3.175046e-04  9.621956e-05
 8.015385e-05  2.514749e-04  8.723478e-05
-8.272133e-05  1.615397e-04  7.827154e-05
-2.072142e-04  5.496288e-05  7.026345e-05
-2.923742e-04 -5.995717e-05  6.420108e-05
-3.386502e-04 -1.754231e-04  5.894700e-05
-3.482989e-04 -2.819024e-04  5.351314e-05
-3.239707e-04 -3.672810e-04  4.603582e-05
-2.704064e-04 -4.161018e-04  3.521657e-05
-1.949547e-04 -4.085212e-04  2.017399e-05
-1.083190e-04 -3.204560e-04  5.843676e-09
-2.409794e-05 -1.262204e-04 -2.585614e-05
 4.203707e-05  1.918162e-04 -5.703212e-05
 7.472478e-05  6.219099e-04 -9.161136e-05
 6.272798e-05  1.095195e-03 -1.254148e-04
 8.734673e-06  1.467728e-03 -1.508254e-04
-6.549632e-05  1.574711e-03 -1.583576e-04
-1.184302e-04  1.304532e-03 -1.409641e-04
-1.025296e-04  6.572947e-04 -1.005039e-04
 1.785521e-05 -3.652315e-04 -4.919980e-05
 3.170919e-04 -1.748845e-03 -3.290322e-06
 1.333001e-04 -3.710414e-03  1.348665e-04
-3.887329e-04 -3.288470e-03  1.228015e-04
-3.017243e-04 -9.232046e-04 -2.192939e-05
 5.643354e-06  4.303076e-04 -5.560205e-05
 8.156638e-05  1.365452e-03 -8.932676e-05
 5.134620e-05  1.932535e-03 -1.069304e-04
-5.474269e-05  2.143039e-03 -1.085620e-04
-1.917351e-04  2.015232e-03 -9.123300e-05
-5.507092e-04  2.003965e-03 -3.797359e-05
-6.619834e-04  1.442982e-03 -4.824704e-07
-7.723895e-04  9.055245e-04  3.219004e-05
-8.721884e-04  4.593186e-04  5.805751e-05
-9.515544e-04  1.198556e-04  7.460812e-05
-1.006020e-03 -1.281950e-04  8.329828e-05
-1.033363e-03 -3.077718e-04  8.556170e-05
-1.033021e-03 -4.436939e-04  8.358238e-05
-1.006512e-03 -5.533866e-04  7.897868e-05
-9.546363e-04 -6.469446e-04  7.231784e-05
-8.834906e-04 -7.231844e-04  6.501482e-05
-8.008641e-04 -7.717621e-04  5.670781e-05
-7.150457e-04 -7.751057e-04  4.606837e-05
-6.349585e-04 -7.114595e-04  3.191411e-05
-5.674220e-04 -5.590741e-04  1.247617e-05
-5.156163e-04 -3.029957e-04 -1.413538e-05
-4.768345e-04  5.261288e-05 -4.912052e-05
-4.414500e-04  4.681639e-04 -9.201094e-05
-3.919798e-04  8.580315e-04 -1.388859e-04
-3.046238e-04  1.109944e-03 -1.805233e-04
-1.589540e-04  1.132645e-03 -1.994733e-04
 3.146513e-05  9.182527e-04 -1.672340e-04
 1.817776e-04  5.344658e-04 -7.243569e-05
 1.579597e-04  1.167818e-04  4.648672e-05
-8.588587e-08 -3.897532e-04  1.019933e-04
-9.659147e-05 -7.021439e-04  6.378433e-05
 3.261666e-06 -7.051868e-04  2.562096e-06
 2.683885e-04 -5.803927e-04 -3.520491e-05
 5.381712e-04 -3.642620e-04 -1.925163e-05
 7.127639e-04 -1.374650e-04  1.846150e-05
 7.704548e-04  7.346597e-05  5.537258e-05
 7.235553e-04  2.414957e-04  8.251017e-05
 6.004736e-04  3.591609e-04  9.782763e-05
 4.323368e-04  4.240836e-04  1.024631e-04
 2.467041e-04  4.411789e-04  9.929348e-05
 6.389921e-05  4.186341e-04  9.181921e-05
-1.028846e-04  3.662580e-04  8.266845e-05
-2.473566e-04  2.940714e-04  7.383248e-05
-3.690743e-04  2.110628e-04  6.692922e-05
-4.707082e-04  1.238176e-04  6.187138e-05
-5.576067e-04  3.644841e-05  5.886649e-05
-6.356290e-04 -4.788116e-05  5.769880e-05
-7.103708e-04 -1.285816e-04  5.776285e-05
-7.853511e-04 -2.071803e-04  5.853387e-05
-8.616919e-04 -2.841314e-04  5.924146e-05
-9.367924e-04 -3.591445e-04  5.870090e-05
-1.004205e-03 -4.305717e-04  5.541832e-05
-1.053064e-03 -4.959138e-04  4.750832e-05
-1.068388e-03 -5.518745e-04  3.286425e-05
-1.030853e-03 -5.957254e-04  9.381699e-06
-9.188239e-04 -6.219175e-04 -2.372500e-05
-7.139814e-04 -6.243918e-04 -6.167548e-05
-4.195945e-04 -5.784472e-04 -9.350766e-05
-7.639732e-05 -4.742686e-04 -8.055284e-05
 1.563602e-04 -2.661559e-04  1.307040e-05
 1.096617e-04 -7.538824e-05  7.591674e-05
-7.956368e-06  1.445992e-04  7.002853e-06
 7.932765e-05  5.089940e-04 -9.883494e-05
 2.753472e-04  8.189849e-04 -1.294886e-04
 4.246852e-04  1.089264e-03 -1.040602e-04
 4.852602e-04  1.260960e-03 -6.287505e-05
 4.438409e-04  1.308641e-03 -2.080446e-05
 3.223706e-04  1.232137e-03  1.626540e-05
 1.500096e-04  1.061066e-03  4.584370e-05
-4.347035e-05  8.368708e-04  6.784962e-05
-2.359072e-04  6.007359e-04  8.245351e-05
-4.094279e-04  3.795531e-04  8.975699e-05
-5.532742e-04  1.879144e-04  9.088032e-05
-6.605724e-04  2.867591e-05  8.712007e-05
-7.287195e-04 -1.016067e-04  8.005389e-05
-7.587111e-04 -2.091644e-04  7.149401e-05
-7.539173e-04 -3.014471e-04  6.260623e-05
-7.195158e-04 -3.833803e-04  5.468529e-05
-6.630395e-04 -4.562318e-04  4.814073e-05
-5.938514e-04 -5.160476e-04  4.324976e-05
-5.222434e-04 -5.540978e-04  3.888531e-05
-4.573718e-04 -5.582733e-04  3.387947e-05
-4.066467e-04 -5.154354e-04  2.684496e-05
-3.744838e-04 -4.137903e-04  1.606316e-05
-3.616382e-04 -2.464893e-04 -2.328709e-08
-3.635605e-04 -1.677513e-05 -2.296028e-05
-3.695813e-04  2.568503e-04 -5.347888e-05
-3.618676e-04  5.364898e-04 -9.139911e-05
-3.163878e-04  7.720955e-04 -1.340848e-04
-2.083262e-04  9.079591e-04 -1.740304e-04
-2.678605e-05  9.182162e-04 -1.977190e-04
 2.103462e-04  7.697193e-04 -1.674076e-04
 3.708970e-04  5.389274e-04 -4.641660e-05
 3.207900e-04  8.266434e-05  4.763928e-05
 2.574801e-04 -3.137577e-04  2.334840e-05
 4.222878e-04 -3.795216e-04 -4.926689e-05
 7.086489e-04 -3.644441e-04 -5.536943e-05
 9.447863e-04 -2.324092e-04 -1.260206e-05
 1.072357e-03 -7.168913e-05  3.555546e-05
 1.077213e-03  8.789728e-05  7.732562e-05
 9.779115e-04  2.221514e-04  1.057770e-04
 8.026637e-04  3.177117e-04  1.211286e-04
 5.835318e-04  3.691822e-04  1.255061e-04
 3.491668e-04  3.743534e-04  1.215550e-04
 1.234151e-04  3.352097e-04  1.124515e-04
-7.600755e-05  2.565573e-04  1.004473e-04
-2.370914e-04  1.459239e-04  8.761855e-05
-3.531295e-04  1.298738e-05  7.506710e-05
-4.208538e-04 -1.322940e-04  6.349128e-05
-4.406029e-04 -2.787461e-04  5.253155e-05
-4.153310e-04 -4.132307e-04  4.170247e-05
-3.512349e-04 -5.186816e-04  3.018292e-05
-2.568727e-04 -5.738227e-04  1.694418e-05
-1.441759e-04 -5.526895e-04  1.229850e-06
-2.696260e-05 -4.255234e-04 -1.805337e-05
 8.113408e-05 -1.638800e-04 -4.173640e-05
 1.697908e-04  2.478370e-04 -7.011321e-05
 2.329159e-04  7.905563e-04 -1.021520e-04
 2.699271e-04  1.375141e-03 -1.339897e-04
 2.863087e-04  1.823699e-03 -1.580481e-04
 3.000406e-04  1.925664e-03 -1.637000e-04
 3.365738e-04  1.551438e-03 -1.451155e-04
 4.279136e-04  6.983209e-04 -1.062077e-04
 5.900857e-04 -5.655743e-04 -6.137305e-05
 6.148979e-04 -2.005898e-03 -1.933144e-05
 2.093282e-04 -3.287696e-03 -7.706126e-06
-4.092565e-04 -2.985481e-03 -2.244142e-05
-7.015860e-04 -1.135902e-03 -4.604454e-05
-5.538410e-04  4.264454e-04 -7.007701e-05
-3.961917e-04  1.609240e-03 -8.599102e-05
-3.529328e-04  2.340363e-03 -9.487247e-05
-3.799320e-04  2.609220e-03 -9.167882e-05
-4.527658e-04  2.452089e-03 -7.047771e-05
-7.351157e-04  2.244009e-03 -1.135110e-05
-8.262834e-04  1.595652e-03  2.606803e-05
-9.404234e-04  9.716661e-04  5.830014e-05
-1.056551e-03  4.502199e-04  7.948298e-05
-1.156270e-03  4.942215e-05  9.031159e-05
-1.224169e-03 -2.432282e-04  9.102898e-05
-1.251861e-03 -4.545380e-04  8.452120e-05
-1.237775e-03 -6.110857e-04  7.381991e-05
-1.182987e-03 -7.354654e-04  6.125256e-05
-1.095749e-03 -8.379685e-04  4.941009e-05
-9.868293e-04 -9.171676e-04  3.896545e-05
-8.683243e-04 -9.593871e-04  2.924035e-05
-7.523486e-04 -9.434241e-04  1.872000e-05
-6.498102e-04 -8.447223e-04  6.025780e-06
-5.681014e-04 -6.406610e-04 -1.100810e-05
-5.076326e-04 -3.182315e-04 -3.467184e-05
-4.605403e-04  1.136537e-04 -6.668950e-05
-4.114084e-04  6.069945e-04 -1.068168e-04
-3.392455e-04  1.061414e-03 -1.506093e-04
-2.221162e-04  1.345228e-03 -1.881471e-04
-4.707205e-05  1.355286e-03 -1.993915e-04
 1.571993e-04  1.081210e-03 -1.531875e-04
 2.855774e-04  6.163269e-04 -4.966484e-05
 2.186547e-04  9.867908e-05  7.138823e-05
 1.899773e-05 -4.865624e-04  1.175552e-04
-9.635988e-05 -8.211815e-04  6.868048e-05
 4.482507e-06 -8.558377e-04  8.087094e-06
 2.544954e-04 -7.465689e-04 -2.106609e-05
 4.978383e-04 -5.204448e-04  1.209581e-06
 6.436134e-04 -2.700097e-04  4.052357e-05
 6.748235e-04 -2.759959e-05  7.744556e-05
 6.056773e-04  1.721375e-04  1.030201e-04
 4.658951e-04  3.178077e-04  1.162928e-04
 2.858786e-04  4.048517e-04  1.184355e-04
 9.242002e-05  4.366323e-04  1.126811e-04
-9.400846e-05  4.213197e-04  1.018063e-04
-2.599923e-04  3.698834e-04  8.876380e-05
-3.979096e-04  2.941729e-04  7.537895e-05
-5.055987e-04  2.049116e-04  6.307618e-05
-5.859496e-04  1.103224e-04  5.256020e-05
-6.451022e-04  1.543010e-05  4.438356e-05
-6.919841e-04 -7.718976e-05  3.968397e-05
-7.342711e-04 -1.671352e-04  3.796813e-05
-7.776879e-04 -2.561577e-04  3.814917e-05
-8.248025e-04 -3.452407e-04  3.934906e-05
-8.739433e-04 -4.349544e-04  4.002833e-05
-9.187167e-04 -5.238141e-04  3.835618e-05
-9.482402e-04 -6.091471e-04  3.225623e-05
-9.469736e-04 -6.867420e-04  1.948616e-05
-8.952708e-04 -7.523796e-04 -1.901699e-06
-7.712859e-04 -7.978408e-04 -3.228770e-05
-5.569871e-04 -8.140932e-04 -6.567717e-05
-2.588562e-04 -7.720368e-04 -8.832695e-05
 7.113728e-05 -6.588695e-04 -6.008243e-05
 2.592117e-04 -4.111313e-04  4.313175e-05
 1.676690e-04 -1.518896e-04  9.575324e-05
 3.790126e-05  1.503264e-04  1.239900e-05
 1.250893e-04  5.726754e-04 -8.782382e-05
 2.950332e-04  9.454976e-04 -1.065217e-04
 4.101644e-04  1.255784e-03 -7.564352e-05
 4.389363e-04  1.449246e-03 -3.381921e-05
 3.742204e-04  1.496022e-03  6.324739e-06
 2.346966e-04  1.398151e-03  4.132262e-05
 4.732447e-05  1.190667e-03  6.893128e-05
-1.637016e-04  9.211628e-04  8.943026e-05
-3.747550e-04  6.375100e-04  1.019875e-04
-5.679729e-04  3.720965e-04  1.064544e-04
-7.277684e-04  1.433485e-04  1.031333e-04
-8.445020e-04 -4.451356e-05  9.352293e-05
-9.130283e-04 -1.947424e-04  7.952106e-05